 vasp.5.3.3 18Dez12 (build May 12 2015 13:38:56) complex                        
  
 executed on             LinuxIFC date 2016.02.16  00:17:54
 running on   96 total cores
 distrk:  each k-point on   96 cores,    1 groups
 distr:  one band on NCORES_PER_BAND=   1 cores,   96 groups


--------------------------------------------------------------------------------------------------------


 INCAR:
 POTCAR:    PAW_PBE Eu_3 20Oct2008                
 POTCAR:    PAW_PBE Mn_pv 02Aug2007               
 POTCAR:    PAW_PBE O 08Apr2002                   

 ----------------------------------------------------------------------------- 
|                                                                             |
|           W    W    AA    RRRRR   N    N  II  N    N   GGGG   !!!           |
|           W    W   A  A   R    R  NN   N  II  NN   N  G    G  !!!           |
|           W    W  A    A  R    R  N N  N  II  N N  N  G       !!!           |
|           W WW W  AAAAAA  RRRRR   N  N N  II  N  N N  G  GGG   !            |
|           WW  WW  A    A  R   R   N   NN  II  N   NN  G    G                |
|           W    W  A    A  R    R  N    N  II  N    N   GGGG   !!!           |
|                                                                             |
|      For optimal performance we recommend that you set                      |
|        NPAR = 4 - approx SQRT( number of cores)                             |
|      (number of cores/NPAR must be integer)                                 |
|      This setting will greatly improve the performance of VASP for DFT.     |
|      The default NPAR=number of cores might be grossly inefficient          |
|      on modern multi-core architectures or massively parallel machines.     |
|      Do your own testing.                                                   |
|      Unfortunately you need to use the default for hybrid, GW and RPA       |
|      calculations.                                                          |
|                                                                             |
 ----------------------------------------------------------------------------- 

 POTCAR:    PAW_PBE Eu_3 20Oct2008                
   VRHFIN =Eu : [core=Kr4d]                                                     
   LEXCH  = PE                                                                  
   EATOM  =   619.7075 eV,   45.5472 Ry                                         
                                                                                
   TITEL  = PAW_PBE Eu_3 20Oct2008                                              
   LULTRA =        F    use ultrasoft PP ?                                      
   IUNSCR =        1    unscreen: 0-lin 1-nonlin 2-no                           
   RPACOR =    2.400    partial core radius                                     
   POMASS =  151.965; ZVAL   =    9.000    mass and valenz                      
   RCORE  =    3.300    outmost cutoff radius                                   
   RWIGS  =    3.300; RWIGS  =    1.746    wigner-seitz radius (au A)           
   ENMAX  =  129.057; ENMIN  =   96.793 eV                                      
   RCLOC  =    2.402    cutoff for local pot                                    
   LCOR   =        T    correct aug charges                                     
   LPAW   =        T    paw PP                                                  
   EAUG   =  254.101                                                            
   DEXC   =    0.000                                                            
   RMAX   =    3.368    core radius for proj-oper                               
   RAUG   =    1.300    factor for augmentation sphere                          
   RDEP   =    3.499    radius for radial grids                                 
   RDEPT  =    2.691    core radius for aug-charge                              
                                                                                
   Atomic configuration                                                         
   14 entries                                                                   
     n  l   j            E        occ.                                          
     1  0  0.50    -48360.9875   2.0000                                         
     2  0  0.50     -7946.3962   2.0000                                         
     2  1  1.50     -7079.3301   6.0000                                         
     3  0  0.50     -1754.7735   2.0000                                         
     3  1  1.50     -1485.0908   6.0000                                         
     3  2  2.50     -1124.9571  10.0000                                         
     4  0  0.50      -354.0450   2.0000                                         
     4  1  1.50      -265.2174   6.0000                                         
     4  2  2.50      -141.5264  10.0000                                         
     4  3  2.50        -8.3799   6.0000                                         
     5  0  0.50       -48.2099   2.0000                                         
     6  0  0.50        -4.0591   2.0000                                         
     5  1  1.50       -26.6249   6.0000                                         
     5  2  2.50        -2.6399   1.0000                                         
   Description                                                                  
     l       E           TYP  RCUT    TYP  RCUT                                 
     0     -4.0590791     23  3.300                                             
     0     13.6058260     23  3.300                                             
     1    -26.6248689     23  3.300                                             
     1    -27.9854515     23  3.300                                             
     2     -2.6399359     23  3.300                                             
     2     -0.6203211     23  3.300                                             
  local pseudopotential read in
  partial core-charges read in
  partial kinetic energy density read in
  atomic valenz-charges read in
  non local Contribution for L=           0  read in
    real space projection operators read in
  non local Contribution for L=           0  read in
    real space projection operators read in
  non local Contribution for L=           1  read in
    real space projection operators read in
  non local Contribution for L=           1  read in
    real space projection operators read in
  non local Contribution for L=           2  read in
    real space projection operators read in
  non local Contribution for L=           2  read in
    real space projection operators read in
    PAW grid and wavefunctions read in
 
   number of l-projection  operators is LMAX  =           6
   number of lm-projection operators is LMMAX =          18
 
 POTCAR:    PAW_PBE Mn_pv 02Aug2007               
   VRHFIN =Mn: 3p4s3d                                                           
   LEXCH  = PE                                                                  
   EATOM  =  2025.2664 eV,  148.8529 Ry                                         
                                                                                
   TITEL  = PAW_PBE Mn_pv 02Aug2007                                             
   LULTRA =        F    use ultrasoft PP ?                                      
   IUNSCR =        1    unscreen: 0-lin 1-nonlin 2-no                           
   RPACOR =    2.080    partial core radius                                     
   POMASS =   54.938; ZVAL   =   13.000    mass and valenz                      
   RCORE  =    2.300    outmost cutoff radius                                   
   RWIGS  =    2.500; RWIGS  =    1.323    wigner-seitz radius (au A)           
   ENMAX  =  269.864; ENMIN  =  202.398 eV                                      
   ICORE  =        3    local potential                                         
   LCOR   =        T    correct aug charges                                     
   LPAW   =        T    paw PP                                                  
   EAUG   =  569.085                                                            
   DEXC   =    0.000                                                            
   RMAX   =    2.343    core radius for proj-oper                               
   RAUG   =    1.300    factor for augmentation sphere                          
   RDEP   =    2.338    radius for radial grids                                 
   RDEPT  =    1.798    core radius for aug-charge                              
                                                                                
   Atomic configuration                                                         
    8 entries                                                                   
     n  l   j            E        occ.                                          
     1  0  0.50     -6424.8287   2.0000                                         
     2  0  0.50      -739.1154   2.0000                                         
     2  1  1.50      -625.3949   6.0000                                         
     3  0  0.50       -81.6100   2.0000                                         
     3  1  1.50       -50.4667   6.0000                                         
     3  2  2.50        -3.3745   6.0000                                         
     4  0  0.50        -4.1331   1.0000                                         
     4  3  2.50        -1.3606   0.0000                                         
   Description                                                                  
     l       E           TYP  RCUT    TYP  RCUT                                 
     1    -50.4666628     23  2.000                                             
     1     -1.3605826     23  2.000                                             
     2     -3.3744729     23  2.300                                             
     2     -4.7350555     23  2.300                                             
     0     -4.1331431     23  2.300                                             
     0      7.6656591     23  2.300                                             
     3      9.5240782     23  2.300                                             
  local pseudopotential read in
  partial core-charges read in
  partial kinetic energy density read in
  atomic valenz-charges read in
  non local Contribution for L=           1  read in
    real space projection operators read in
  non local Contribution for L=           1  read in
    real space projection operators read in
  non local Contribution for L=           2  read in
    real space projection operators read in
  non local Contribution for L=           2  read in
    real space projection operators read in
  non local Contribution for L=           0  read in
    real space projection operators read in
  non local Contribution for L=           0  read in
    real space projection operators read in
    PAW grid and wavefunctions read in
 
   number of l-projection  operators is LMAX  =           6
   number of lm-projection operators is LMMAX =          18
 
 POTCAR:    PAW_PBE O 08Apr2002                   
   VRHFIN =O: s2p4                                                              
   LEXCH  = PE                                                                  
   EATOM  =   432.3788 eV,   31.7789 Ry                                         
                                                                                
   TITEL  = PAW_PBE O 08Apr2002                                                 
   LULTRA =        F    use ultrasoft PP ?                                      
   IUNSCR =        1    unscreen: 0-lin 1-nonlin 2-no                           
   RPACOR =    1.200    partial core radius                                     
   POMASS =   16.000; ZVAL   =    6.000    mass and valenz                      
   RCORE  =    1.520    outmost cutoff radius                                   
   RWIGS  =    1.550; RWIGS  =    0.820    wigner-seitz radius (au A)           
   ENMAX  =  400.000; ENMIN  =  300.000 eV                                      
   ICORE  =        2    local potential                                         
   LCOR   =        T    correct aug charges                                     
   LPAW   =        T    paw PP                                                  
   EAUG   =  605.392                                                            
   DEXC   =    0.000                                                            
   RMAX   =    1.553    core radius for proj-oper                               
   RAUG   =    1.300    factor for augmentation sphere                          
   RDEP   =    1.550    radius for radial grids                                 
   RDEPT  =    1.329    core radius for aug-charge                              
                                                                                
   Atomic configuration                                                         
    4 entries                                                                   
     n  l   j            E        occ.                                          
     1  0  0.50      -514.6923   2.0000                                         
     2  0  0.50       -23.9615   2.0000                                         
     2  1  0.50        -9.0305   4.0000                                         
     3  2  1.50        -9.5241   0.0000                                         
   Description                                                                  
     l       E           TYP  RCUT    TYP  RCUT                                 
     0    -23.9615318     23  1.200                                             
     0     -9.5240782     23  1.200                                             
     1     -9.0304911     23  1.520                                             
     1      8.1634956     23  1.520                                             
     2     -9.5240782      7  1.500                                             
  local pseudopotential read in
  partial core-charges read in
  partial kinetic energy density read in
  kinetic energy density of atom read in
  atomic valenz-charges read in
  non local Contribution for L=           0  read in
    real space projection operators read in
  non local Contribution for L=           0  read in
    real space projection operators read in
  non local Contribution for L=           1  read in
    real space projection operators read in
  non local Contribution for L=           1  read in
    real space projection operators read in
    PAW grid and wavefunctions read in
 
   number of l-projection  operators is LMAX  =           4
   number of lm-projection operators is LMMAX =           8
 

 ----------------------------------------------------------------------------- 
|                                                                             |
|  ADVICE TO THIS USER RUNNING 'VASP/VAMP'   (HEAR YOUR MASTER'S VOICE ...):  |
|                                                                             |
|      You have a (more or less) 'large supercell' and for larger cells       |
|      it might be more efficient to use real space projection opertators     |
|      So try LREAL= Auto  in the INCAR   file.                               |
|      Mind: At the moment your POTCAR file does not contain real space       |
|       projectors, and has to be modified,  BUT if you                       |
|      want to do an extremely  accurate calculation you might also keep the  |
|      reciprocal projection scheme          (i.e. LREAL=.FALSE.)             |
|                                                                             |
 ----------------------------------------------------------------------------- 

 WARNING: PSMAXN for non-local potential too small
          PSMAXN should be >   11.4556933989635       NTYP=           1

 ----------------------------------------------------------------------------- 
|                                                                             |
|  ADVICE TO THIS USER RUNNING 'VASP/VAMP'   (HEAR YOUR MASTER'S VOICE ...):  |
|                                                                             |
|      You enforced a specific xc-type in the INCAR file,                     |
|      a different type was found on the POTCAR file                          |
|          I HOPE YOU KNOW, WHAT YOU ARE  DOING                               |
|                                                                             |
 ----------------------------------------------------------------------------- 

  PAW_PBE Eu_3 20Oct2008                :
 energy of atom  1       EATOM= -619.7075
 kinetic energy error for atom=    0.0001 (will be added to EATOM!!)
  PAW_PBE Mn_pv 02Aug2007               :
 energy of atom  2       EATOM=-2025.2664
 kinetic energy error for atom=    0.0062 (will be added to EATOM!!)
  PAW_PBE O 08Apr2002                   :
 energy of atom  3       EATOM= -432.3788
 kinetic energy error for atom=    0.0224 (will be added to EATOM!!)
 
 
 POSCAR: EuMnO3                                  
  positions in direct lattice
  velocities in cartesian coordinates
 exchange correlation table for  LEXCH =       14
   RHO(1)=    0.500       N(1)  =     2000
   RHO(2)=  100.500       N(2)  =     4000
 


--------------------------------------------------------------------------------------------------------


 ion  position               nearest neighbor table
   1  0.980  0.039  0.250-  24 2.27  39 2.32  36 2.32  17 2.34  30 2.49  25 2.49  27 2.54  32 2.54
                            10 3.01  12 3.01  24 3.05   9 3.12  11 3.12  11 3.29   9 3.29   8 3.71
   2  0.021  0.958  0.750-  19 2.27  27 2.30  32 2.30  18 2.34  29 2.45  26 2.45  36 2.54  39 2.54
                            14 3.03  16 3.03  19 3.08   9 3.14  11 3.14   9 3.30  11 3.30   7 3.71
   3  0.480  0.211  0.750-  22 2.27  34 2.32  37 2.32  19 2.34  27 2.49  32 2.49  25 2.54  30 2.54
                             9 3.01  11 3.01  22 3.05  12 3.12  10 3.12  12 3.29  10 3.29   6 3.71
   4  0.521  0.292  0.250-  17 2.27  30 2.30  25 2.30  20 2.34  31 2.45  28 2.45  34 2.54  37 2.54
                            13 3.03  15 3.03  17 3.08  10 3.14  12 3.14  10 3.30  12 3.30   5 3.71
   5  0.980  0.539  0.250-  20 2.27  31 2.32  28 2.32  21 2.34  38 2.49  33 2.49  35 2.54  40 2.54
                            14 3.01  16 3.01  20 3.05  13 3.12  15 3.12  15 3.29  13 3.29   4 3.71
   6  0.021  0.458  0.750-  23 2.27  35 2.30  40 2.30  22 2.34  37 2.45  34 2.45  28 2.54  31 2.54
                            10 3.03  12 3.03  23 3.08  13 3.14  15 3.14  13 3.30  15 3.30   3 3.71
   7  0.480  0.711  0.750-  18 2.27  26 2.32  29 2.32  23 2.34  35 2.49  40 2.49  33 2.54  38 2.54
                            13 3.01  15 3.01  18 3.05  16 3.12  14 3.12  16 3.29  14 3.29   2 3.71
   8  0.521  0.792  0.250-  21 2.27  38 2.30  33 2.30  24 2.34  39 2.45  36 2.45  26 2.54  29 2.54
                             9 3.03  11 3.03  21 3.08  14 3.14  16 3.14  14 3.30  16 3.30   1 3.71
   9  0.502  0.002  0.000-  27 1.90  36 1.90  24 1.91  19 1.91  25 2.11  26 2.15   3 3.01   8 3.03
                             1 3.12   2 3.14   1 3.29   2 3.30
  10  0.002  0.248  1.000-  25 1.90  34 1.90  22 1.91  17 1.91  27 2.11  28 2.15   1 3.01   6 3.03
                             3 3.12   4 3.14   3 3.29   4 3.30
  11  0.502  0.002  0.500-  32 1.90  39 1.90  24 1.91  19 1.91  30 2.11  29 2.15   3 3.01   8 3.03
                             1 3.12   2 3.14   1 3.29   2 3.30
  12  0.002  0.248  0.500-  30 1.90  37 1.90  22 1.91  17 1.91  32 2.11  31 2.15   1 3.01   6 3.03
                             3 3.12   4 3.14   3 3.29   4 3.30
  13  0.502  0.502  0.000-  35 1.90  28 1.90  20 1.91  23 1.91  33 2.11  34 2.15   7 3.01   4 3.03
                             5 3.12   6 3.14   5 3.29   6 3.30
  14  0.002  0.748  1.000-  33 1.90  26 1.90  18 1.91  21 1.91  35 2.11  36 2.15   5 3.01   2 3.03
                             7 3.12   8 3.14   7 3.29   8 3.30
  15  0.502  0.502  0.500-  40 1.90  31 1.90  20 1.91  23 1.91  38 2.11  37 2.15   7 3.01   4 3.03
                             5 3.12   6 3.14   5 3.29   6 3.30
  16  0.002  0.748  0.500-  38 1.90  29 1.90  18 1.91  21 1.91  40 2.11  39 2.15   5 3.01   2 3.03
                             7 3.12   8 3.14   7 3.29   8 3.30
  17  0.101  0.236  0.250-  10 1.91  12 1.91   4 2.27   1 2.34   4 3.08
  18  0.903  0.761  0.750-  14 1.91  16 1.91   7 2.27   2 2.34   7 3.05
  19  0.601  0.014  0.750-   9 1.91  11 1.91   2 2.27   3 2.34   2 3.08
  20  0.403  0.489  0.250-  13 1.91  15 1.91   5 2.27   4 2.34   5 3.05
  21  0.101  0.736  0.250-  14 1.91  16 1.91   8 2.27   5 2.34   8 3.08
  22  0.903  0.261  0.750-  10 1.91  12 1.91   3 2.27   6 2.34   3 3.05
  23  0.601  0.514  0.750-  13 1.91  15 1.91   6 2.27   7 2.34   6 3.08
  24  0.403  0.989  0.250-   9 1.91  11 1.91   1 2.27   8 2.34   1 3.05
  25  0.700  0.160  0.050-  10 1.90   9 2.11   4 2.30   1 2.49   3 2.54
  26  0.296  0.842  0.953-  14 1.90   9 2.15   7 2.32   2 2.45   8 2.54
  27  0.200  0.090  0.950-   9 1.90  10 2.11   2 2.30   3 2.49   1 2.54
  28  0.796  0.408  0.047-  13 1.90  10 2.15   5 2.32   4 2.45   6 2.54
  29  0.296  0.842  0.547-  16 1.90  11 2.15   7 2.32   2 2.45   8 2.54
  30  0.700  0.160  0.450-  12 1.90  11 2.11   4 2.30   1 2.49   3 2.54
  31  0.796  0.408  0.453-  15 1.90  12 2.15   5 2.32   4 2.45   6 2.54
  32  0.200  0.090  0.550-  11 1.90  12 2.11   2 2.30   3 2.49   1 2.54
  33  0.700  0.660  0.050-  14 1.90  13 2.11   8 2.30   5 2.49   7 2.54
  34  0.296  0.342  0.953-  10 1.90  13 2.15   3 2.32   6 2.45   4 2.54
  35  0.200  0.590  0.950-  13 1.90  14 2.11   6 2.30   7 2.49   5 2.54
  36  0.796  0.908  0.047-   9 1.90  14 2.15   1 2.32   8 2.45   2 2.54
  37  0.296  0.342  0.547-  12 1.90  15 2.15   3 2.32   6 2.45   4 2.54
  38  0.700  0.660  0.450-  16 1.90  15 2.11   8 2.30   5 2.49   7 2.54
  39  0.796  0.908  0.453-  11 1.90  16 2.15   1 2.32   8 2.45   2 2.54
  40  0.200  0.590  0.550-  15 1.90  16 2.11   6 2.30   7 2.49   5 2.54
 
  LATTYP: Found a simple orthorhombic cell.
 ALAT       =     5.1905401644
 B/A-ratio  =     1.4109150310
 C/A-ratio  =     2.2069659542
  
  Lattice vectors:
  
 A1 = (  -5.1905401644,   0.0000000000,   0.0000000000)
 A2 = (   0.0000000000,   0.0000000000,  -7.3234111372)
 A3 = (   0.0000000000, -11.4553454266,   0.0000000000)


Analysis of symmetry for initial positions (statically):
=====================================================================
 Subroutine PRICEL returns following result:
 
  LATTYP: Found a simple orthorhombic cell.
 ALAT       =     5.1905401644
 B/A-ratio  =     1.1034830433
 C/A-ratio  =     1.4109150310
  
  Lattice vectors:
  
 A1 = (   5.1905401644,   0.0000000000,   0.0000000000)
 A2 = (   0.0000000000,   5.7276730569,   0.0000000000)
 A3 = (   0.0000000000,   0.0000000000,   7.3234111372)
 
   2 primitive cells build up your supercell.
 

 Routine SETGRP: Setting up the symmetry group for a 
 simple orthorhombic supercell.


 Subroutine GETGRP returns: Found  4 space group operations
 (whereof  1 operations were pure point group operations)
 out of a pool of  8 trial point group operations.


The static configuration has the point symmetry C_1 .
 The point group associated with its full space group is C_2v.


Analysis of symmetry for dynamics (positions and initial velocities):
=====================================================================
 Subroutine PRICEL returns following result:
 
  LATTYP: Found a simple orthorhombic cell.
 ALAT       =     5.1905401644
 B/A-ratio  =     1.1034830433
 C/A-ratio  =     1.4109150310
  
  Lattice vectors:
  
 A1 = (   5.1905401644,   0.0000000000,   0.0000000000)
 A2 = (   0.0000000000,   5.7276730569,   0.0000000000)
 A3 = (   0.0000000000,   0.0000000000,   7.3234111372)
 
   2 primitive cells build up your supercell.
 

 Routine SETGRP: Setting up the symmetry group for a 
 simple orthorhombic supercell.


 Subroutine GETGRP returns: Found  4 space group operations
 (whereof  1 operations were pure point group operations)
 out of a pool of  8 trial point group operations.


The dynamic configuration has the point symmetry C_1 .
 The point group associated with its full space group is C_2v.


Analysis of magnetic symmetry:
=====================================================================

 Subroutine MAGSYM returns: Found  4 space group operations
 (whereof  1 operations were pure point group operations)
 out of a pool of  4 trial space group operations
 (whereof  1 operations were pure point group operations)
 and found also     2 'primitive' translations


The magnetic configuration has the point symmetry C_1 .
 The point group associated with its full space group is C_2v.


 irot  :   1
 --------------------------------------------------------------------
 isymop:   1   0   0
           0   1   0
           0   0   1

 gtrans:     0.0000000     0.0000000     0.0000000

 ptrans:     0.0000000     0.0000000     0.0000000
 rotmap:
 (   1->   1)  (   2->   2)  (   3->   3)  (   4->   4)  (   5->   5) 
 (   6->   6)  (   7->   7)  (   8->   8)  (   9->   9)  (  10->  10) 
 (  11->  11)  (  12->  12)  (  13->  13)  (  14->  14)  (  15->  15) 
 (  16->  16)  (  17->  17)  (  18->  18)  (  19->  19)  (  20->  20) 
 (  21->  21)  (  22->  22)  (  23->  23)  (  24->  24)  (  25->  25) 
 (  26->  26)  (  27->  27)  (  28->  28)  (  29->  29)  (  30->  30) 
 (  31->  31)  (  32->  32)  (  33->  33)  (  34->  34)  (  35->  35) 
 (  36->  36)  (  37->  37)  (  38->  38)  (  39->  39)  (  40->  40) 

 ptrans:     0.0000000     0.5000000     0.0000000
 rotmap:
 (   1->   5)  (   2->   6)  (   3->   7)  (   4->   8)  (   5->   1) 
 (   6->   2)  (   7->   3)  (   8->   4)  (   9->  13)  (  10->  14) 
 (  11->  15)  (  12->  16)  (  13->   9)  (  14->  10)  (  15->  11) 
 (  16->  12)  (  17->  21)  (  18->  22)  (  19->  23)  (  20->  24) 
 (  21->  17)  (  22->  18)  (  23->  19)  (  24->  20)  (  25->  33) 
 (  26->  34)  (  27->  35)  (  28->  36)  (  29->  37)  (  30->  38) 
 (  31->  39)  (  32->  40)  (  33->  25)  (  34->  26)  (  35->  27) 
 (  36->  28)  (  37->  29)  (  38->  30)  (  39->  31)  (  40->  32) 


 irot  :   2
 --------------------------------------------------------------------
 isymop:   1   0   0
           0  -1   0
           0   0   1

 gtrans:     0.5000000     0.2500000     0.5000000

 ptrans:     0.0000000     0.0000000     0.0000000
 rotmap:
 (   1->   3)  (   2->   4)  (   3->   1)  (   4->   2)  (   5->   7) 
 (   6->   8)  (   7->   5)  (   8->   6)  (   9->  12)  (  10->  11) 
 (  11->  10)  (  12->   9)  (  13->  16)  (  14->  15)  (  15->  14) 
 (  16->  13)  (  17->  19)  (  18->  20)  (  19->  17)  (  20->  18) 
 (  21->  23)  (  22->  24)  (  23->  21)  (  24->  22)  (  25->  32) 
 (  26->  31)  (  27->  30)  (  28->  29)  (  29->  28)  (  30->  27) 
 (  31->  26)  (  32->  25)  (  33->  40)  (  34->  39)  (  35->  38) 
 (  36->  37)  (  37->  36)  (  38->  35)  (  39->  34)  (  40->  33) 

 ptrans:     0.0000000     0.5000000     0.0000000
 rotmap:
 (   1->   7)  (   2->   8)  (   3->   5)  (   4->   6)  (   5->   3) 
 (   6->   4)  (   7->   1)  (   8->   2)  (   9->  16)  (  10->  15) 
 (  11->  14)  (  12->  13)  (  13->  12)  (  14->  11)  (  15->  10) 
 (  16->   9)  (  17->  23)  (  18->  24)  (  19->  21)  (  20->  22) 
 (  21->  19)  (  22->  20)  (  23->  17)  (  24->  18)  (  25->  40) 
 (  26->  39)  (  27->  38)  (  28->  37)  (  29->  36)  (  30->  35) 
 (  31->  34)  (  32->  33)  (  33->  32)  (  34->  31)  (  35->  30) 
 (  36->  29)  (  37->  28)  (  38->  27)  (  39->  26)  (  40->  25) 


 irot  :   3
 --------------------------------------------------------------------
 isymop:   1   0   0
           0   1   0
           0   0  -1

 gtrans:     0.0000000     0.0000000     0.5000000

 ptrans:     0.0000000     0.0000000     0.0000000
 rotmap:
 (   1->   1)  (   2->   2)  (   3->   3)  (   4->   4)  (   5->   5) 
 (   6->   6)  (   7->   7)  (   8->   8)  (   9->  11)  (  10->  12) 
 (  11->   9)  (  12->  10)  (  13->  15)  (  14->  16)  (  15->  13) 
 (  16->  14)  (  17->  17)  (  18->  18)  (  19->  19)  (  20->  20) 
 (  21->  21)  (  22->  22)  (  23->  23)  (  24->  24)  (  25->  30) 
 (  26->  29)  (  27->  32)  (  28->  31)  (  29->  26)  (  30->  25) 
 (  31->  28)  (  32->  27)  (  33->  38)  (  34->  37)  (  35->  40) 
 (  36->  39)  (  37->  34)  (  38->  33)  (  39->  36)  (  40->  35) 

 ptrans:     0.0000000     0.5000000     0.0000000
 rotmap:
 (   1->   5)  (   2->   6)  (   3->   7)  (   4->   8)  (   5->   1) 
 (   6->   2)  (   7->   3)  (   8->   4)  (   9->  15)  (  10->  16) 
 (  11->  13)  (  12->  14)  (  13->  11)  (  14->  12)  (  15->   9) 
 (  16->  10)  (  17->  21)  (  18->  22)  (  19->  23)  (  20->  24) 
 (  21->  17)  (  22->  18)  (  23->  19)  (  24->  20)  (  25->  38) 
 (  26->  37)  (  27->  40)  (  28->  39)  (  29->  34)  (  30->  33) 
 (  31->  36)  (  32->  35)  (  33->  30)  (  34->  29)  (  35->  32) 
 (  36->  31)  (  37->  26)  (  38->  25)  (  39->  28)  (  40->  27) 


 irot  :   4
 --------------------------------------------------------------------
 isymop:   1   0   0
           0  -1   0
           0   0  -1

 gtrans:     0.5000000     0.2500000     0.0000000

 ptrans:     0.0000000     0.0000000     0.0000000
 rotmap:
 (   1->   3)  (   2->   4)  (   3->   1)  (   4->   2)  (   5->   7) 
 (   6->   8)  (   7->   5)  (   8->   6)  (   9->  10)  (  10->   9) 
 (  11->  12)  (  12->  11)  (  13->  14)  (  14->  13)  (  15->  16) 
 (  16->  15)  (  17->  19)  (  18->  20)  (  19->  17)  (  20->  18) 
 (  21->  23)  (  22->  24)  (  23->  21)  (  24->  22)  (  25->  27) 
 (  26->  28)  (  27->  25)  (  28->  26)  (  29->  31)  (  30->  32) 
 (  31->  29)  (  32->  30)  (  33->  35)  (  34->  36)  (  35->  33) 
 (  36->  34)  (  37->  39)  (  38->  40)  (  39->  37)  (  40->  38) 

 ptrans:     0.0000000     0.5000000     0.0000000
 rotmap:
 (   1->   7)  (   2->   8)  (   3->   5)  (   4->   6)  (   5->   3) 
 (   6->   4)  (   7->   1)  (   8->   2)  (   9->  14)  (  10->  13) 
 (  11->  16)  (  12->  15)  (  13->  10)  (  14->   9)  (  15->  12) 
 (  16->  11)  (  17->  23)  (  18->  24)  (  19->  21)  (  20->  22) 
 (  21->  19)  (  22->  20)  (  23->  17)  (  24->  18)  (  25->  35) 
 (  26->  36)  (  27->  33)  (  28->  34)  (  29->  39)  (  30->  40) 
 (  31->  37)  (  32->  38)  (  33->  27)  (  34->  28)  (  35->  25) 
 (  36->  26)  (  37->  31)  (  38->  32)  (  39->  29)  (  40->  30) 
 
 
 KPOINTS: Automatic mesh                          

Automatic generation of k-mesh.
Space group operators:
 irot       det(A)        alpha          n_x          n_y          n_z        tau_x        tau_y        tau_z
    1     1.000000     0.000000     1.000000     0.000000     0.000000     0.000000     0.000000     0.000000
    2    -1.000000   179.999999     0.000000     1.000000     0.000000     0.500000     0.250000     0.500000
    3    -1.000000   180.000000     0.000000     0.000000     1.000000     0.000000     0.000000     0.500000
    4     1.000000   180.000000     1.000000     0.000000     0.000000     0.500000     0.250000     0.000000
 
 Subroutine IBZKPT returns following result:
 ===========================================
 
 Found     12 irreducible k-points:
 
 Following reciprocal coordinates:
            Coordinates               Weight
  0.083333  0.000000  0.125000      4.000000
  0.250000  0.000000  0.125000      4.000000
  0.416667  0.000000  0.125000      4.000000
  0.083333  0.333333  0.125000      8.000000
  0.250000  0.333333  0.125000      8.000000
  0.416667  0.333333  0.125000      8.000000
  0.083333  0.000000  0.375000      4.000000
  0.250000  0.000000  0.375000      4.000000
  0.416667  0.000000  0.375000      4.000000
  0.083333  0.333333  0.375000      8.000000
  0.250000  0.333333  0.375000      8.000000
  0.416667  0.333333  0.375000      8.000000
 
 Following cartesian coordinates:
            Coordinates               Weight
  0.016055  0.000000  0.017069      4.000000
  0.048165  0.000000  0.017069      4.000000
  0.080274  0.000000  0.017069      4.000000
  0.016055  0.029098  0.017069      8.000000
  0.048165  0.029098  0.017069      8.000000
  0.080274  0.029098  0.017069      8.000000
  0.016055  0.000000  0.051206      4.000000
  0.048165  0.000000  0.051206      4.000000
  0.080274  0.000000  0.051206      4.000000
  0.016055  0.029098  0.051206      8.000000
  0.048165  0.029098  0.051206      8.000000
  0.080274  0.029098  0.051206      8.000000
 
 
 Subroutine IBZKPT_HF returns following result:
 ==============================================
 
 Found     72 k-points in 1st BZ
 the following     72 k-points will be used (e.g. in the exchange kernel)
 Following reciprocal coordinates:   # in IRBZ
  0.083333  0.000000  0.125000       1 t-inv F
  0.250000  0.000000  0.125000       2 t-inv F
  0.416667  0.000000  0.125000       3 t-inv F
  0.083333  0.333333  0.125000       4 t-inv F
  0.250000  0.333333  0.125000       5 t-inv F
  0.416667  0.333333  0.125000       6 t-inv F
  0.083333  0.000000  0.375000       7 t-inv F
  0.250000  0.000000  0.375000       8 t-inv F
  0.416667  0.000000  0.375000       9 t-inv F
  0.083333  0.333333  0.375000      10 t-inv F
  0.250000  0.333333  0.375000      11 t-inv F
  0.416667  0.333333  0.375000      12 t-inv F
  0.083333  0.000000 -0.125000       1 t-inv F spinflp
  0.250000  0.000000 -0.125000       2 t-inv F spinflp
  0.416667  0.000000 -0.125000       3 t-inv F spinflp
  0.083333 -0.333333  0.125000       4 t-inv F
  0.083333  0.333333 -0.125000       4 t-inv F spinflp
  0.083333 -0.333333 -0.125000       4 t-inv F spinflp
  0.250000 -0.333333  0.125000       5 t-inv F
  0.250000  0.333333 -0.125000       5 t-inv F spinflp
  0.250000 -0.333333 -0.125000       5 t-inv F spinflp
  0.416667 -0.333333  0.125000       6 t-inv F
  0.416667  0.333333 -0.125000       6 t-inv F spinflp
  0.416667 -0.333333 -0.125000       6 t-inv F spinflp
  0.083333  0.000000 -0.375000       7 t-inv F spinflp
  0.250000  0.000000 -0.375000       8 t-inv F spinflp
  0.416667  0.000000 -0.375000       9 t-inv F spinflp
  0.083333 -0.333333  0.375000      10 t-inv F
  0.083333  0.333333 -0.375000      10 t-inv F spinflp
  0.083333 -0.333333 -0.375000      10 t-inv F spinflp
  0.250000 -0.333333  0.375000      11 t-inv F
  0.250000  0.333333 -0.375000      11 t-inv F spinflp
  0.250000 -0.333333 -0.375000      11 t-inv F spinflp
  0.416667 -0.333333  0.375000      12 t-inv F
  0.416667  0.333333 -0.375000      12 t-inv F spinflp
  0.416667 -0.333333 -0.375000      12 t-inv F spinflp
 -0.083333  0.000000 -0.125000       1 t-inv T
 -0.083333  0.000000  0.125000       1 t-inv T spinflp
 -0.250000  0.000000 -0.125000       2 t-inv T
 -0.250000  0.000000  0.125000       2 t-inv T spinflp
 -0.416667  0.000000 -0.125000       3 t-inv T
 -0.416667  0.000000  0.125000       3 t-inv T spinflp
 -0.083333 -0.333333 -0.125000       4 t-inv T
 -0.083333  0.333333 -0.125000       4 t-inv T
 -0.083333 -0.333333  0.125000       4 t-inv T spinflp
 -0.083333  0.333333  0.125000       4 t-inv T spinflp
 -0.250000 -0.333333 -0.125000       5 t-inv T
 -0.250000  0.333333 -0.125000       5 t-inv T
 -0.250000 -0.333333  0.125000       5 t-inv T spinflp
 -0.250000  0.333333  0.125000       5 t-inv T spinflp
 -0.416667 -0.333333 -0.125000       6 t-inv T
 -0.416667  0.333333 -0.125000       6 t-inv T
 -0.416667 -0.333333  0.125000       6 t-inv T spinflp
 -0.416667  0.333333  0.125000       6 t-inv T spinflp
 -0.083333  0.000000 -0.375000       7 t-inv T
 -0.083333  0.000000  0.375000       7 t-inv T spinflp
 -0.250000  0.000000 -0.375000       8 t-inv T
 -0.250000  0.000000  0.375000       8 t-inv T spinflp
 -0.416667  0.000000 -0.375000       9 t-inv T
 -0.416667  0.000000  0.375000       9 t-inv T spinflp
 -0.083333 -0.333333 -0.375000      10 t-inv T
 -0.083333  0.333333 -0.375000      10 t-inv T
 -0.083333 -0.333333  0.375000      10 t-inv T spinflp
 -0.083333  0.333333  0.375000      10 t-inv T spinflp
 -0.250000 -0.333333 -0.375000      11 t-inv T
 -0.250000  0.333333 -0.375000      11 t-inv T
 -0.250000 -0.333333  0.375000      11 t-inv T spinflp
 -0.250000  0.333333  0.375000      11 t-inv T spinflp
 -0.416667 -0.333333 -0.375000      12 t-inv T
 -0.416667  0.333333 -0.375000      12 t-inv T
 -0.416667 -0.333333  0.375000      12 t-inv T spinflp
 -0.416667  0.333333  0.375000      12 t-inv T spinflp


--------------------------------------------------------------------------------------------------------




 Dimension of arrays:
   k-points           NKPTS =     12   k-points in BZ     NKDIM =     12   number of bands    NBANDS=    192
   number of dos      NEDOS =    301   number of ions     NIONS =     40
   non local maximal  LDIM  =      6   non local SUM 2l+1 LMDIM =     18
   total plane-waves  NPLWV = 181440
   max r-space proj   IRMAX =      1   max aug-charges    IRDMAX=  42569
   dimension x,y,z NGX =    40 NGY =   84 NGZ =   54
   dimension x,y,z NGXF=    80 NGYF=  168 NGZF=  108
   support grid    NGXF=    80 NGYF=  168 NGZF=  108
   ions per type =               8   8  24
 NGX,Y,Z   is equivalent  to a cutoff of  12.81, 12.19, 12.26 a.u.
 NGXF,Y,Z  is equivalent  to a cutoff of  25.62, 24.38, 24.52 a.u.


 I would recommend the setting:
   dimension x,y,z NGX =    38 NGY =   84 NGZ =   53
 SYSTEM =  unknown system                          
 POSCAR =  EuMnO3                                  

 Startparameter for this run:
   NWRITE =      2    write-flag & timer
   PREC   = accura    normal or accurate (medium, high low for compatibility)
   ISTART =      1    job   : 0-new  1-cont  2-samecut
   ICHARG =      0    charge: 1-file 2-atom 10-const
   ISPIN  =      2    spin polarized calculation?
   LNONCOLLINEAR =      F non collinear calculations
   LSORBIT =      F    spin-orbit coupling
   INIWAV =      1    electr: 0-lowe 1-rand  2-diag
   LASPH  =      F    aspherical Exc in radial PAW
   METAGGA=      F    non-selfconsistent MetaGGA calc.

 Electronic Relaxation 1
   ENCUT  =  500.0 eV  36.75 Ry    6.06 a.u.   9.46 20.89 13.35*2*pi/ulx,y,z
   ENINI  =  500.0     initial cutoff
   ENAUG  =  605.4 eV  augmentation charge cutoff
   NELM   =    100;   NELMIN=  2; NELMDL=  0     # of ELM steps 
   EDIFF  = 0.1E-07   stopping-criterion for ELM
   LREAL  =      F    real-space projection
   NLSPLINE    = F    spline interpolate recip. space projectors
   LCOMPAT=      F    compatible to vasp.4.4
   GGA_COMPAT  = T    GGA compatible to vasp.4.4-vasp.4.6
   LMAXPAW     = -100 max onsite density
   LMAXMIX     =    2 max onsite mixed and CHGCAR
   VOSKOWN=      0    Vosko Wilk Nusair interpolation
   ROPT   =    0.00000   0.00000   0.00000
 Ionic relaxation
   EDIFFG = -.1E-02   stopping-criterion for IOM
   NSW    =      0    number of steps for IOM
   NBLOCK =      1;   KBLOCK =      1    inner block; outer block 
   IBRION =     -1    ionic relax: 0-MD 1-quasi-New 2-CG
   NFREE  =      0    steps in history (QN), initial steepest desc. (CG)
   ISIF   =      2    stress and relaxation
   IWAVPR =     10    prediction:  0-non 1-charg 2-wave 3-comb
   ISYM   =      2    0-nonsym 1-usesym 2-fastsym
   LCORR  =      T    Harris-Foulkes like correction to forces

   POTIM  = 0.5000    time-step for ionic-motion
   TEIN   =    0.0    initial temperature
   TEBEG  =    0.0;   TEEND  =   0.0 temperature during run
   SMASS  =  -3.00    Nose mass-parameter (am)
   estimated Nose-frequenzy (Omega)   =  0.10E-29 period in steps =****** mass=  -0.616E-27a.u.
   SCALEE = 1.0000    scale energy and forces
   NPACO  =    256;   APACO  = 16.0  distance and # of slots for P.C.
   PSTRESS=  100.0 pullay stress

  Mass of Ions in am
   POMASS = 151.97 54.94 16.00
  Ionic Valenz
   ZVAL   =   9.00 13.00  6.00
  Atomic Wigner-Seitz radii
   RWIGS  =  -1.00 -1.00 -1.00
  virtual crystal weights 
   VCA    =   1.00  1.00  1.00
   NELECT =     320.0000    total number of electrons
   NUPDOWN=      -1.0000    fix difference up-down

 DOS related values:
   EMIN   =  10.00;   EMAX   =-10.00  energy-range for DOS
   EFERMI =   0.00
   ISMEAR =     0;   SIGMA  =   0.00  broadening in eV -4-tet -1-fermi 0-gaus

 Electronic relaxation 2 (details)
   IALGO  =     38    algorithm
   LDIAG  =      T    sub-space diagonalisation (order eigenvalues)
   LSUBROT=      T    optimize rotation matrix (better conditioning)
   TURBO    =      0    0=normal 1=particle mesh
   IRESTART =      0    0=no restart 2=restart with 2 vectors
   NREBOOT  =      0    no. of reboots
   NMIN     =      0    reboot dimension
   EREF     =   0.00    reference energy to select bands
   IMIX   =      4    mixing-type and parameters
     AMIX     =   0.40;   BMIX     =  1.00
     AMIX_MAG =   1.60;   BMIX_MAG =  1.00
     AMIN     =   0.10
     WC   =   100.;   INIMIX=   1;  MIXPRE=   1;  MAXMIX= -45

 Intra band minimization:
   WEIMIN = 0.0000     energy-eigenvalue tresh-hold
   EBREAK =  0.13E-10  absolut break condition
   DEPER  =   0.30     relativ break condition  

   TIME   =   0.40     timestep for ELM

  volume/ion in A,a.u.               =      10.89        73.46
  Fermi-wavevector in a.u.,A,eV,Ry     =   1.477339  2.791766 29.695122  2.182530
  Thomas-Fermi vector in A             =   2.591755
 
 Write flags
   LWAVE  =      T    write WAVECAR
   LCHARG =      T    write CHGCAR
   LVTOT  =      F    write LOCPOT, total local potential
   LVHAR  =      F    write LOCPOT, Hartree potential only
   LELF   =      F    write electronic localiz. function (ELF)
   LORBIT =     11    0 simple, 1 ext, 2 COOP (PROOUT)


 Dipole corrections
   LMONO  =      F    monopole corrections only (constant potential shift)
   LDIPOL =      F    correct potential (dipole corrections)
   IDIPOL =      0    1-x, 2-y, 3-z, 4-all directions 
   EPSILON=  1.0000000 bulk dielectric constant

 LDA+U is selected, type is set to LDAUTYPE =  1
   angular momentum for each species LDAUL =    -1    2   -1
   U (eV)           for each species LDAUU =   0.0  1.0  0.0
   J (eV)           for each species LDAUJ =   0.0  0.0  0.0
 Exchange correlation treatment:
   GGA     =    PS    GGA type
   LEXCH   =    14    internal setting for exchange type
   VOSKOWN=      0    Vosko Wilk Nusair interpolation
   LHFCALC =     F    Hartree Fock is set to
   LHFONE  =     F    Hartree Fock one center treatment
   AEXX    =    0.0000 exact exchange contribution

 Linear response parameters
   LEPSILON=     F    determine dielectric tensor
   LRPA    =     F    only Hartree local field effects (RPA)
   LNABLA  =     F    use nabla operator in PAW spheres
   LVEL    =     F    velocity operator in full k-point grid
   LINTERFAST=   F  fast interpolation
   KINTER  =     0    interpolate to denser k-point grid
   CSHIFT  =0.1000    complex shift for real part using Kramers Kronig
   OMEGAMAX=  -1.0    maximum frequency
   DEG_THRESHOLD= 0.2000000E-02 threshold for treating states as degnerate
   RTIME   =    0.100 relaxation time in fs

 Orbital magnetization related:
   ORBITALMAG=     F  switch on orbital magnetization
   LCHIMAG   =     F  perturbation theory with respect to B field
   DQ        =  0.001000  dq finite difference perturbation B field

 PEAD related settings:
   LPEAD      =     T    switch on PEAD
   IPEAD      =     4    finite difference order for dpsi/dk
   LCALCPOL   =     T    calculate macroscopic polarization
   LCALCEPS   =     F    calculate dielectric tensor
   EFIELD_PEAD=    0.0000    0.0000    0.0000
   SKIP_EDOTP =     F
   LRPA       =     F
   SKIP_SCF   =     F


--------------------------------------------------------------------------------------------------------


 Static calculation
 charge density and potential will be updated during run
 spin polarized calculation
 Variant of blocked Davidson
 Davidson routine will perform the subspace rotation
 perform sub-space diagonalisation
    after iterative eigenvector-optimisation
 modified Broyden-mixing scheme, WC =      100.0
 initial mixing is a Kerker type mixing with AMIX =  0.4000 and BMIX =      1.0000
 Hartree-type preconditioning will be used
 using additional bands           32
 reciprocal scheme for non local part
 use partial core corrections
 calculate Harris-corrections to forces 
   (improved forces if not selfconsistent)
 use gradient corrections 
 use of overlap-Matrix (Vanderbilt PP)
 Gauss-broadening in eV      SIGMA  =   0.00


--------------------------------------------------------------------------------------------------------


  energy-cutoff  :      500.00
  volume of cell :      435.45
      direct lattice vectors                 reciprocal lattice vectors
     5.190540164  0.000000000  0.000000000     0.192658176  0.000000000  0.000000000
     0.000000000 11.455345427  0.000000000     0.000000000  0.087295491  0.000000000
     0.000000000  0.000000000  7.323411137     0.000000000  0.000000000  0.136548390

  length of vectors
     5.190540164 11.455345427  7.323411137     0.192658176  0.087295491  0.136548390


 
 old parameters found on file WAVECAR:
  energy-cutoff  :      500.00
  volume of cell :      435.45
      direct lattice vectors                 reciprocal lattice vectors
     5.190540164  0.000000000  0.000000000     0.192658176  0.000000000  0.000000000
     0.000000000 11.455345427  0.000000000     0.000000000  0.087295491  0.000000000
     0.000000000  0.000000000  7.323411137     0.000000000  0.000000000  0.136548390

  length of vectors

 
 k-points in units of 2pi/SCALE and weight: Automatic mesh                          
   0.01605485  0.00000000  0.01706855       0.056
   0.04816454  0.00000000  0.01706855       0.056
   0.08027424  0.00000000  0.01706855       0.056
   0.01605485  0.02909850  0.01706855       0.111
   0.04816454  0.02909850  0.01706855       0.111
   0.08027424  0.02909850  0.01706855       0.111
   0.01605485  0.00000000  0.05120565       0.056
   0.04816454  0.00000000  0.05120565       0.056
   0.08027424  0.00000000  0.05120565       0.056
   0.01605485  0.02909850  0.05120565       0.111
   0.04816454  0.02909850  0.05120565       0.111
   0.08027424  0.02909850  0.05120565       0.111
 
 k-points in reciprocal lattice and weights: Automatic mesh                          
   0.08333333  0.00000000  0.12500000       0.056
   0.25000000  0.00000000  0.12500000       0.056
   0.41666667  0.00000000  0.12500000       0.056
   0.08333333  0.33333333  0.12500000       0.111
   0.25000000  0.33333333  0.12500000       0.111
   0.41666667  0.33333333  0.12500000       0.111
   0.08333333  0.00000000  0.37500000       0.056
   0.25000000  0.00000000  0.37500000       0.056
   0.41666667  0.00000000  0.37500000       0.056
   0.08333333  0.33333333  0.37500000       0.111
   0.25000000  0.33333333  0.37500000       0.111
   0.41666667  0.33333333  0.37500000       0.111
 
 position of ions in fractional coordinates (direct lattice) 
   0.98044971  0.03915922  0.25000000
   0.02079736  0.95836165  0.75000000
   0.48044971  0.21084078  0.75000000
   0.52079736  0.29163838  0.25000000
   0.98044971  0.53915921  0.25000000
   0.02079736  0.45836165  0.75000000
   0.48044971  0.71084079  0.75000000
   0.52079736  0.79163835  0.25000000
   0.50150532  0.00208529  0.00014819
   0.00150532  0.24791471  0.99985181
   0.50150532  0.00208529  0.49985181
   0.00150532  0.24791471  0.50014819
   0.50150532  0.50208529  0.00014819
   0.00150532  0.74791471  0.99985181
   0.50150532  0.50208529  0.49985181
   0.00150532  0.74791471  0.50014819
   0.10095190  0.23615762  0.25000000
   0.90293526  0.76127528  0.75000000
   0.60095188  0.01384238  0.75000000
   0.40293526  0.48872472  0.25000000
   0.10095190  0.73615763  0.25000000
   0.90293526  0.26127528  0.75000000
   0.60095188  0.51384237  0.75000000
   0.40293526  0.98872472  0.25000000
   0.70002169  0.16006803  0.05026037
   0.29590589  0.84175759  0.95253075
   0.20002169  0.08993197  0.94973961
   0.79590589  0.40824241  0.04746923
   0.29590589  0.84175759  0.54746925
   0.70002169  0.16006803  0.44973961
   0.79590589  0.40824241  0.45253075
   0.20002169  0.08993197  0.55026039
   0.70002169  0.66006803  0.05026037
   0.29590589  0.34175759  0.95253075
   0.20002169  0.58993197  0.94973961
   0.79590589  0.90824241  0.04746923
   0.29590589  0.34175759  0.54746925
   0.70002169  0.66006803  0.44973961
   0.79590589  0.90824241  0.45253075
   0.20002169  0.58993197  0.55026039
 
 position of ions in cartesian coordinates  (Angst):
   5.08906358  0.44858245  1.83085278
   0.10794953 10.97836378  5.49255835
   2.49379349  2.41525396  5.49255835
   2.70321961  3.34081835  1.83085278
   5.08906358  6.17625494  1.83085278
   0.10794953  5.25069106  5.49255835
   2.49379349  8.14292684  5.49255835
   2.70321961  9.06849072  1.83085278
   2.60308351  0.02388774  0.00108527
   0.00781343  2.83994861  7.32232587
   2.60308351  0.02388774  3.66062030
   0.00781343  2.83994861  3.66279084
   2.60308351  5.75156045  0.00108527
   0.00781343  8.56762133  7.32232587
   2.60308351  5.75156045  3.66062030
   0.00781343  8.56762133  3.66279084
   0.52399487  2.70526707  1.83085278
   4.68672171  8.72067125  5.49255835
   3.11926487  0.15856928  5.49255835
   2.09145163  5.59851054  1.83085278
   0.52399487  8.43293995  1.83085278
   4.68672171  2.99299853  5.49255835
   3.11926487  5.88624184  5.49255835
   2.09145163 11.32618325  1.83085278
   3.63349069  1.83363456  0.36807736
   1.53591140  9.64262397  6.97577431
   1.03822061  1.03020179  6.95533367
   4.13118148  4.67655781  0.34763671
   1.53591140  9.64262397  4.00934239
   3.63349069  1.83363456  3.29362810
   4.13118148  4.67655781  3.31406874
   1.03822061  1.03020179  4.02978303
   3.63349069  7.56130728  0.36807736
   1.53591140  3.91495126  6.97577431
   1.03822061  6.75787451  6.95533367
   4.13118148 10.40423053  0.34763671
   1.53591140  3.91495126  4.00934239
   3.63349069  7.56130728  3.29362810
   4.13118148 10.40423053  3.31406874
   1.03822061  6.75787451  4.02978303
 


--------------------------------------------------------------------------------------------------------


 k-point  1 :   0.0833 0.0000 0.1250  plane waves:   11066
 k-point  2 :   0.2500 0.0000 0.1250  plane waves:   11067
 k-point  3 :   0.4167 0.0000 0.1250  plane waves:   11043
 k-point  4 :   0.0833 0.3333 0.1250  plane waves:   11079
 k-point  5 :   0.2500 0.3333 0.1250  plane waves:   11059
 k-point  6 :   0.4167 0.3333 0.1250  plane waves:   11031
 k-point  7 :   0.0833 0.0000 0.3750  plane waves:   11046
 k-point  8 :   0.2500 0.0000 0.3750  plane waves:   11051
 k-point  9 :   0.4167 0.0000 0.3750  plane waves:   11039
 k-point 10 :   0.0833 0.3333 0.3750  plane waves:   11063
 k-point 11 :   0.2500 0.3333 0.3750  plane waves:   11041
 k-point 12 :   0.4167 0.3333 0.3750  plane waves:   11034

 maximum and minimum number of plane-waves per node :     11079    11031

 maximum number of plane-waves:     11079
 maximum index in each direction: 
   IXMAX=    9   IYMAX=   20   IZMAX=   13
   IXMIN=   -9   IYMIN=  -21   IZMIN=  -13

 NGX is ok and might be reduce to  38
 NGY is ok and might be reduce to  84
 NGZ is ok and might be reduce to  54

 serial   3D FFT for wavefunctions
 parallel 3D FFT for charge:
    minimum data exchange during FFTs selected (reduces bandwidth)


 total amount of memory used by VASP on root node   122653. kBytes
========================================================================

   base      :      30000. kBytes
   nonl-proj :      64856. kBytes
   fftplans  :       1389. kBytes
   grid      :      16243. kBytes
   one-center:       1244. kBytes
   wavefun   :       8921. kBytes
 
 Broyden mixing: mesh for mixing (old mesh)
   NGX = 19   NGY = 41   NGZ = 27
  (NGX  = 80   NGY  =168   NGZ  =108)
  gives a total of  21033 points

 charge density for first step will be calculated from the start-wavefunctions


--------------------------------------------------------------------------------------------------------


 Maximum index for augmentation-charges         1394 (set IRDMAX)


--------------------------------------------------------------------------------------------------------


 initial charge from wavefunction
 First call to EWALD:  gamma=   0.234
 Maximum number of real-space cells 4x 2x 3
 Maximum number of reciprocal cells 2x 4x 3

 FEWALD executed in parallel
    FEWALD:  cpu time    0.01: real time    0.01


----------------------------------------- Iteration    1(   1)  ---------------------------------------


    POTLOK:  cpu time    0.12: real time    0.12
    SETDIJ:  cpu time    0.03: real time    0.03
     EDDAV:  cpu time   32.79: real time   32.85
       DOS:  cpu time    0.06: real time    0.06
    CHARGE:  cpu time    0.71: real time    0.71
    MIXING:  cpu time    0.03: real time    0.03
    --------------------------------------------
      LOOP:  cpu time   33.76: real time   33.82

 eigenvalue-minimisations  : 11520
 total energy-change (2. order) :-0.3455079E+03  (-0.2810570E-09)
 number of electron     320.0000025 magnetization      -0.0000000
 augmentation part      104.4102727 magnetization      -0.0000000

 Broyden mixing:
  rms(total) = 0.11829E-04    rms(broyden)= 0.11828E-04
  rms(prec ) = 0.13412E-04
  weight for this iteration     100.00

 Free energy of the ion-electron system (eV)
  ---------------------------------------------------
  alpha Z        PSCENC =      2143.72892832
  Ewald energy   TEWEN  =    -24052.23914300
  -1/2 Hartree   DENC   =     -7965.13074397
  -exchange  EXHF       =         0.00000000
  -V(xc)+E(xc)   XCENC  =      1200.13791598
  PAW double counting   =     39952.79909812   -40080.26404866
  entropy T*S    EENTRO =         0.00000000
  eigenvalues    EBANDS =     -3033.07019525
  atomic energy  EATOM  =     31488.53027915
  ---------------------------------------------------
  free energy    TOTEN  =      -345.50790931 eV

  energy without entropy =     -345.50790931  energy(sigma->0) =     -345.50790931


--------------------------------------------------------------------------------------------------------




----------------------------------------- Iteration    1(   2)  ---------------------------------------


    POTLOK:  cpu time    0.13: real time    0.13
    SETDIJ:  cpu time    0.04: real time    0.04
     EDDAV:  cpu time   19.58: real time   19.57
       DOS:  cpu time    0.03: real time    0.03
    --------------------------------------------
      LOOP:  cpu time   19.79: real time   20.03

 eigenvalue-minimisations  :  6912
 total energy-change (2. order) :-0.1818989E-09  (-0.1633071E-09)
 number of electron     320.0000025 magnetization      -0.0000000
 augmentation part      104.4102727 magnetization      -0.0000000

 Free energy of the ion-electron system (eV)
  ---------------------------------------------------
  alpha Z        PSCENC =      2143.72892832
  Ewald energy   TEWEN  =    -24052.23914300
  -1/2 Hartree   DENC   =     -7965.13012945
  -exchange  EXHF       =         0.00000000
  -V(xc)+E(xc)   XCENC  =      1200.13789528
  PAW double counting   =     39952.79654548   -40080.26143983
  entropy T*S    EENTRO =         0.00000000
  eigenvalues    EBANDS =     -3033.07084527
  atomic energy  EATOM  =     31488.53027915
  ---------------------------------------------------
  free energy    TOTEN  =      -345.50790931 eV

  energy without entropy =     -345.50790931  energy(sigma->0) =     -345.50790931


--------------------------------------------------------------------------------------------------------




 average (electrostatic) potential at core
  the test charge radii are     1.4333  0.9577  0.7215
  (the norm of the test charge is              1.0000)
       1 -29.0574       2 -28.9034       3 -29.0574       4 -28.9034       5 -29.0574
       6 -28.9034       7 -29.0574       8 -28.9034       9 -69.2107      10 -69.2107
      11 -69.2107      12 -69.2107      13 -69.2107      14 -69.2107      15 -69.2107
      16 -69.2107      17 -69.7579      18 -69.7866      19 -69.7579      20 -69.7866
      21 -69.7579      22 -69.7866      23 -69.7579      24 -69.7866      25 -69.4039
      26 -69.3896      27 -69.4039      28 -69.3896      29 -69.3896      30 -69.4039
      31 -69.3896      32 -69.4039      33 -69.4039      34 -69.3896      35 -69.4039
      36 -69.3896      37 -69.3896      38 -69.4039      39 -69.3896      40 -69.4039
 
 
 
 E-fermi :   6.0124     XC(G=0): -12.2447     alpha+bet :-13.9453


 spin component 1

 k-point   1 :       0.0833    0.0000    0.1250
  band No.  band energies     occupation 
      1     -44.5645      1.00000
      2     -44.5644      1.00000
      3     -44.5644      1.00000
      4     -44.5643      1.00000
      5     -44.5188      1.00000
      6     -44.5188      1.00000
      7     -44.5184      1.00000
      8     -44.5184      1.00000
      9     -44.2175      1.00000
     10     -44.2175      1.00000
     11     -44.2167      1.00000
     12     -44.2167      1.00000
     13     -41.0503      1.00000
     14     -41.0503      1.00000
     15     -41.0500      1.00000
     16     -41.0499      1.00000
     17     -40.8594      1.00000
     18     -40.8593      1.00000
     19     -40.8590      1.00000
     20     -40.8589      1.00000
     21     -40.1227      1.00000
     22     -40.1227      1.00000
     23     -40.1215      1.00000
     24     -40.1214      1.00000
     25     -15.8299      1.00000
     26     -15.7011      1.00000
     27     -15.6791      1.00000
     28     -15.5919      1.00000
     29     -15.5828      1.00000
     30     -15.5422      1.00000
     31     -15.4644      1.00000
     32     -15.4590      1.00000
     33     -15.3126      1.00000
     34     -15.2605      1.00000
     35     -15.2369      1.00000
     36     -15.0875      1.00000
     37     -15.0787      1.00000
     38     -14.9758      1.00000
     39     -14.8903      1.00000
     40     -14.8520      1.00000
     41     -14.8365      1.00000
     42     -14.6550      1.00000
     43     -14.6255      1.00000
     44     -14.5089      1.00000
     45     -14.4931      1.00000
     46     -14.4853      1.00000
     47     -14.4801      1.00000
     48     -14.3991      1.00000
     49     -13.5643      1.00000
     50     -12.7472      1.00000
     51     -12.6353      1.00000
     52     -12.4666      1.00000
     53     -12.4092      1.00000
     54     -12.3876      1.00000
     55     -12.3211      1.00000
     56     -12.2412      1.00000
     57     -12.2118      1.00000
     58     -12.1575      1.00000
     59     -12.1311      1.00000
     60     -12.0840      1.00000
     61     -11.9314      1.00000
     62     -11.9296      1.00000
     63     -11.8287      1.00000
     64     -11.7084      1.00000
     65     -11.5727      1.00000
     66     -11.5292      1.00000
     67     -11.4780      1.00000
     68     -11.3738      1.00000
     69     -11.3459      1.00000
     70     -11.2715      1.00000
     71     -11.1147      1.00000
     72     -11.0365      1.00000
     73      -1.3918      1.00000
     74      -1.1827      1.00000
     75      -1.1661      1.00000
     76      -1.1150      1.00000
     77      -1.0594      1.00000
     78      -0.7074      1.00000
     79      -0.6066      1.00000
     80      -0.5718      1.00000
     81      -0.4960      1.00000
     82      -0.4748      1.00000
     83      -0.4377      1.00000
     84      -0.2712      1.00000
     85      -0.2288      1.00000
     86      -0.1685      1.00000
     87      -0.1400      1.00000
     88      -0.0611      1.00000
     89      -0.0329      1.00000
     90       0.0798      1.00000
     91       0.0889      1.00000
     92       0.1895      1.00000
     93       0.2786      1.00000
     94       0.2882      1.00000
     95       0.3455      1.00000
     96       0.3600      1.00000
     97       0.3903      1.00000
     98       0.4979      1.00000
     99       0.5164      1.00000
    100       0.5826      1.00000
    101       0.6276      1.00000
    102       0.7137      1.00000
    103       0.7606      1.00000
    104       0.8074      1.00000
    105       0.8268      1.00000
    106       0.9580      1.00000
    107       1.0727      1.00000
    108       1.1407      1.00000
    109       1.1586      1.00000
    110       1.1956      1.00000
    111       1.2708      1.00000
    112       1.3669      1.00000
    113       1.4240      1.00000
    114       1.4391      1.00000
    115       1.4912      1.00000
    116       1.5858      1.00000
    117       1.7397      1.00000
    118       1.7508      1.00000
    119       1.8100      1.00000
    120       1.9266      1.00000
    121       2.0276      1.00000
    122       2.0437      1.00000
    123       2.1490      1.00000
    124       2.2513      1.00000
    125       2.2989      1.00000
    126       2.4838      1.00000
    127       2.4926      1.00000
    128       2.5427      1.00000
    129       2.6068      1.00000
    130       2.6484      1.00000
    131       2.7217      1.00000
    132       2.7896      1.00000
    133       2.8023      1.00000
    134       2.8142      1.00000
    135       2.8807      1.00000
    136       2.9007      1.00000
    137       2.9349      1.00000
    138       3.0028      1.00000
    139       3.2120      1.00000
    140       3.2353      1.00000
    141       3.3016      1.00000
    142       3.3684      1.00000
    143       3.3914      1.00000
    144       3.5886      1.00000
    145       3.7170      1.00000
    146       3.7414      1.00000
    147       3.8084      1.00000
    148       3.8203      1.00000
    149       3.8989      1.00000
    150       4.0187      1.00000
    151       4.0964      1.00000
    152       4.1099      1.00000
    153       4.1830      1.00000
    154       4.2877      1.00000
    155       4.3165      1.00000
    156       4.4057      1.00000
    157       5.1938      1.00000
    158       5.2532      1.00000
    159       5.6741      1.00000
    160       5.8274      1.00000
    161       6.5547      0.00000
    162       6.7295      0.00000
    163       6.9785      0.00000
    164       7.1149      0.00000
    165       7.4485      0.00000
    166       7.5011      0.00000
    167       7.5816      0.00000
    168       7.6162      0.00000
    169       7.6262      0.00000
    170       7.6527      0.00000
    171       7.8324      0.00000
    172       7.8775      0.00000
    173       7.9121      0.00000
    174       8.0305      0.00000
    175       8.0643      0.00000
    176       8.0983      0.00000
    177       8.6182      0.00000
    178       8.7241      0.00000
    179       9.0433      0.00000
    180       9.3950      0.00000
    181       9.5991      0.00000
    182       9.7329      0.00000
    183       9.7998      0.00000
    184       9.8231      0.00000
    185       9.9206      0.00000
    186       9.9897      0.00000
    187      10.0546      0.00000
    188      10.2319      0.00000
    189      10.3670      0.00000
    190      10.3814      0.00000
    191      10.4481      0.00000
    192      10.6135      0.00000

 k-point   2 :       0.2500    0.0000    0.1250
  band No.  band energies     occupation 
      1     -44.5644      1.00000
      2     -44.5644      1.00000
      3     -44.5644      1.00000
      4     -44.5643      1.00000
      5     -44.5188      1.00000
      6     -44.5188      1.00000
      7     -44.5185      1.00000
      8     -44.5185      1.00000
      9     -44.2174      1.00000
     10     -44.2174      1.00000
     11     -44.2168      1.00000
     12     -44.2168      1.00000
     13     -41.0503      1.00000
     14     -41.0502      1.00000
     15     -41.0500      1.00000
     16     -41.0500      1.00000
     17     -40.8593      1.00000
     18     -40.8593      1.00000
     19     -40.8590      1.00000
     20     -40.8590      1.00000
     21     -40.1225      1.00000
     22     -40.1225      1.00000
     23     -40.1216      1.00000
     24     -40.1216      1.00000
     25     -15.8459      1.00000
     26     -15.8422      1.00000
     27     -15.7917      1.00000
     28     -15.7279      1.00000
     29     -15.6133      1.00000
     30     -15.4953      1.00000
     31     -15.4910      1.00000
     32     -15.3866      1.00000
     33     -15.3840      1.00000
     34     -15.3446      1.00000
     35     -15.3128      1.00000
     36     -15.1934      1.00000
     37     -15.1082      1.00000
     38     -14.9049      1.00000
     39     -14.7837      1.00000
     40     -14.7800      1.00000
     41     -14.6409      1.00000
     42     -14.6297      1.00000
     43     -14.6220      1.00000
     44     -14.6126      1.00000
     45     -14.5279      1.00000
     46     -14.5107      1.00000
     47     -14.5099      1.00000
     48     -14.3997      1.00000
     49     -13.0734      1.00000
     50     -12.6049      1.00000
     51     -12.5796      1.00000
     52     -12.5320      1.00000
     53     -12.3752      1.00000
     54     -12.3532      1.00000
     55     -12.3475      1.00000
     56     -12.3039      1.00000
     57     -12.3028      1.00000
     58     -12.2624      1.00000
     59     -12.2576      1.00000
     60     -12.2084      1.00000
     61     -11.7502      1.00000
     62     -11.7090      1.00000
     63     -11.6952      1.00000
     64     -11.6242      1.00000
     65     -11.5938      1.00000
     66     -11.4392      1.00000
     67     -11.4071      1.00000
     68     -11.3119      1.00000
     69     -11.2819      1.00000
     70     -11.2756      1.00000
     71     -11.2068      1.00000
     72     -11.1933      1.00000
     73      -1.4112      1.00000
     74      -1.2365      1.00000
     75      -1.2040      1.00000
     76      -1.1910      1.00000
     77      -0.8472      1.00000
     78      -0.8239      1.00000
     79      -0.8006      1.00000
     80      -0.6479      1.00000
     81      -0.6254      1.00000
     82      -0.5895      1.00000
     83      -0.5810      1.00000
     84      -0.3077      1.00000
     85      -0.2421      1.00000
     86      -0.2416      1.00000
     87      -0.1447      1.00000
     88      -0.1267      1.00000
     89      -0.0141      1.00000
     90       0.0827      1.00000
     91       0.1480      1.00000
     92       0.1998      1.00000
     93       0.2655      1.00000
     94       0.3505      1.00000
     95       0.4256      1.00000
     96       0.4519      1.00000
     97       0.4797      1.00000
     98       0.5041      1.00000
     99       0.5420      1.00000
    100       0.6154      1.00000
    101       0.6828      1.00000
    102       0.7001      1.00000
    103       0.8235      1.00000
    104       0.8275      1.00000
    105       0.8710      1.00000
    106       0.8742      1.00000
    107       0.9536      1.00000
    108       1.0537      1.00000
    109       1.1022      1.00000
    110       1.1362      1.00000
    111       1.2248      1.00000
    112       1.3730      1.00000
    113       1.4236      1.00000
    114       1.4435      1.00000
    115       1.5319      1.00000
    116       1.6505      1.00000
    117       1.6857      1.00000
    118       1.8412      1.00000
    119       1.8997      1.00000
    120       1.9269      1.00000
    121       2.0167      1.00000
    122       2.0724      1.00000
    123       2.1440      1.00000
    124       2.1860      1.00000
    125       2.2692      1.00000
    126       2.3839      1.00000
    127       2.4105      1.00000
    128       2.4547      1.00000
    129       2.5561      1.00000
    130       2.5878      1.00000
    131       2.6581      1.00000
    132       2.6769      1.00000
    133       2.7820      1.00000
    134       2.8191      1.00000
    135       2.8721      1.00000
    136       2.9113      1.00000
    137       2.9184      1.00000
    138       3.0112      1.00000
    139       3.0158      1.00000
    140       3.0759      1.00000
    141       3.1203      1.00000
    142       3.1793      1.00000
    143       3.2078      1.00000
    144       3.3522      1.00000
    145       3.7506      1.00000
    146       3.7938      1.00000
    147       3.8797      1.00000
    148       3.8802      1.00000
    149       4.0055      1.00000
    150       4.0358      1.00000
    151       4.1493      1.00000
    152       4.1924      1.00000
    153       4.2238      1.00000
    154       4.3717      1.00000
    155       4.3844      1.00000
    156       4.4200      1.00000
    157       5.3281      1.00000
    158       5.4353      1.00000
    159       5.6714      1.00000
    160       5.7051      1.00000
    161       6.6372      0.00000
    162       6.7372      0.00000
    163       6.9190      0.00000
    164       7.0886      0.00000
    165       7.4581      0.00000
    166       7.4687      0.00000
    167       7.5928      0.00000
    168       7.6058      0.00000
    169       7.6825      0.00000
    170       7.7035      0.00000
    171       7.8325      0.00000
    172       7.8447      0.00000
    173       7.9271      0.00000
    174       7.9739      0.00000
    175       8.0272      0.00000
    176       8.0506      0.00000
    177       8.6771      0.00000
    178       8.7057      0.00000
    179       9.1467      0.00000
    180       9.2458      0.00000
    181       9.6228      0.00000
    182       9.6771      0.00000
    183       9.7403      0.00000
    184       9.8140      0.00000
    185       9.8392      0.00000
    186       9.9092      0.00000
    187      10.1382      0.00000
    188      10.2410      0.00000
    189      10.4959      0.00000
    190      10.5804      0.00000
    191      10.6956      0.00000
    192      10.7961      0.00000

 k-point   3 :       0.4167    0.0000    0.1250
  band No.  band energies     occupation 
      1     -44.5644      1.00000
      2     -44.5644      1.00000
      3     -44.5644      1.00000
      4     -44.5643      1.00000
      5     -44.5187      1.00000
      6     -44.5187      1.00000
      7     -44.5186      1.00000
      8     -44.5186      1.00000
      9     -44.2172      1.00000
     10     -44.2172      1.00000
     11     -44.2170      1.00000
     12     -44.2170      1.00000
     13     -41.0502      1.00000
     14     -41.0501      1.00000
     15     -41.0501      1.00000
     16     -41.0500      1.00000
     17     -40.8592      1.00000
     18     -40.8592      1.00000
     19     -40.8591      1.00000
     20     -40.8591      1.00000
     21     -40.1222      1.00000
     22     -40.1222      1.00000
     23     -40.1219      1.00000
     24     -40.1219      1.00000
     25     -16.0017      1.00000
     26     -16.0000      1.00000
     27     -15.7677      1.00000
     28     -15.6228      1.00000
     29     -15.6012      1.00000
     30     -15.5994      1.00000
     31     -15.5604      1.00000
     32     -15.4134      1.00000
     33     -15.3610      1.00000
     34     -15.3609      1.00000
     35     -15.3565      1.00000
     36     -15.2314      1.00000
     37     -15.0917      1.00000
     38     -15.0877      1.00000
     39     -14.8458      1.00000
     40     -14.8118      1.00000
     41     -14.5823      1.00000
     42     -14.5724      1.00000
     43     -14.5400      1.00000
     44     -14.5343      1.00000
     45     -14.4759      1.00000
     46     -14.4648      1.00000
     47     -14.4535      1.00000
     48     -14.4130      1.00000
     49     -12.6451      1.00000
     50     -12.6362      1.00000
     51     -12.5141      1.00000
     52     -12.5057      1.00000
     53     -12.4815      1.00000
     54     -12.4256      1.00000
     55     -12.4072      1.00000
     56     -12.3807      1.00000
     57     -12.3751      1.00000
     58     -12.2398      1.00000
     59     -12.0476      1.00000
     60     -12.0160      1.00000
     61     -11.8455      1.00000
     62     -11.8238      1.00000
     63     -11.4945      1.00000
     64     -11.4906      1.00000
     65     -11.4733      1.00000
     66     -11.4609      1.00000
     67     -11.3749      1.00000
     68     -11.3715      1.00000
     69     -11.2801      1.00000
     70     -11.2595      1.00000
     71     -11.2428      1.00000
     72     -11.2386      1.00000
     73      -1.4024      1.00000
     74      -1.3325      1.00000
     75      -1.2627      1.00000
     76      -1.2626      1.00000
     77      -1.0339      1.00000
     78      -1.0331      1.00000
     79      -0.7742      1.00000
     80      -0.7618      1.00000
     81      -0.6048      1.00000
     82      -0.6023      1.00000
     83      -0.4918      1.00000
     84      -0.4302      1.00000
     85      -0.2547      1.00000
     86      -0.2240      1.00000
     87      -0.0626      1.00000
     88      -0.0337      1.00000
     89       0.0620      1.00000
     90       0.1542      1.00000
     91       0.1685      1.00000
     92       0.2242      1.00000
     93       0.2347      1.00000
     94       0.2619      1.00000
     95       0.2931      1.00000
     96       0.3846      1.00000
     97       0.4205      1.00000
     98       0.5018      1.00000
     99       0.5657      1.00000
    100       0.5720      1.00000
    101       0.6527      1.00000
    102       0.6891      1.00000
    103       0.7461      1.00000
    104       0.7606      1.00000
    105       0.8374      1.00000
    106       0.9223      1.00000
    107       1.0769      1.00000
    108       1.0878      1.00000
    109       1.1910      1.00000
    110       1.1963      1.00000
    111       1.3191      1.00000
    112       1.3594      1.00000
    113       1.4501      1.00000
    114       1.5669      1.00000
    115       1.5868      1.00000
    116       1.6395      1.00000
    117       1.6912      1.00000
    118       1.7133      1.00000
    119       1.7846      1.00000
    120       1.9341      1.00000
    121       1.9831      1.00000
    122       1.9995      1.00000
    123       2.0117      1.00000
    124       2.0651      1.00000
    125       2.2269      1.00000
    126       2.2429      1.00000
    127       2.4177      1.00000
    128       2.4259      1.00000
    129       2.4774      1.00000
    130       2.5958      1.00000
    131       2.6617      1.00000
    132       2.6979      1.00000
    133       2.7650      1.00000
    134       2.7874      1.00000
    135       2.8354      1.00000
    136       2.8771      1.00000
    137       2.8934      1.00000
    138       2.9994      1.00000
    139       3.0158      1.00000
    140       3.0181      1.00000
    141       3.0378      1.00000
    142       3.0735      1.00000
    143       3.0751      1.00000
    144       3.1555      1.00000
    145       3.6730      1.00000
    146       3.6988      1.00000
    147       3.9553      1.00000
    148       3.9567      1.00000
    149       4.1480      1.00000
    150       4.1545      1.00000
    151       4.1863      1.00000
    152       4.2206      1.00000
    153       4.2920      1.00000
    154       4.3780      1.00000
    155       4.4020      1.00000
    156       4.4083      1.00000
    157       5.4252      1.00000
    158       5.5359      1.00000
    159       5.5843      1.00000
    160       5.6414      1.00000
    161       6.7867      0.00000
    162       6.8329      0.00000
    163       6.8544      0.00000
    164       7.0180      0.00000
    165       7.4742      0.00000
    166       7.5023      0.00000
    167       7.5425      0.00000
    168       7.5712      0.00000
    169       7.7588      0.00000
    170       7.7660      0.00000
    171       7.7949      0.00000
    172       7.8507      0.00000
    173       7.9185      0.00000
    174       7.9649      0.00000
    175       7.9890      0.00000
    176       7.9943      0.00000
    177       8.7343      0.00000
    178       8.9108      0.00000
    179       8.9522      0.00000
    180       9.1389      0.00000
    181       9.5609      0.00000
    182       9.6755      0.00000
    183       9.7742      0.00000
    184       9.8523      0.00000
    185       9.9227      0.00000
    186       9.9271      0.00000
    187      10.1420      0.00000
    188      10.1589      0.00000
    189      10.6111      0.00000
    190      10.6852      0.00000
    191      10.8448      0.00000
    192      10.8622      0.00000

 k-point   4 :       0.0833    0.3333    0.1250
  band No.  band energies     occupation 
      1     -44.5645      1.00000
      2     -44.5644      1.00000
      3     -44.5644      1.00000
      4     -44.5643      1.00000
      5     -44.5188      1.00000
      6     -44.5188      1.00000
      7     -44.5184      1.00000
      8     -44.5184      1.00000
      9     -44.2175      1.00000
     10     -44.2175      1.00000
     11     -44.2167      1.00000
     12     -44.2167      1.00000
     13     -41.0503      1.00000
     14     -41.0503      1.00000
     15     -41.0500      1.00000
     16     -41.0499      1.00000
     17     -40.8594      1.00000
     18     -40.8593      1.00000
     19     -40.8589      1.00000
     20     -40.8589      1.00000
     21     -40.1227      1.00000
     22     -40.1227      1.00000
     23     -40.1215      1.00000
     24     -40.1214      1.00000
     25     -15.7852      1.00000
     26     -15.7346      1.00000
     27     -15.7012      1.00000
     28     -15.6538      1.00000
     29     -15.5890      1.00000
     30     -15.5071      1.00000
     31     -15.4753      1.00000
     32     -15.4347      1.00000
     33     -15.2701      1.00000
     34     -15.2498      1.00000
     35     -15.1909      1.00000
     36     -15.0806      1.00000
     37     -15.0421      1.00000
     38     -15.0126      1.00000
     39     -14.9779      1.00000
     40     -14.8199      1.00000
     41     -14.7735      1.00000
     42     -14.6744      1.00000
     43     -14.6407      1.00000
     44     -14.5804      1.00000
     45     -14.5641      1.00000
     46     -14.5151      1.00000
     47     -14.4279      1.00000
     48     -14.4003      1.00000
     49     -13.3474      1.00000
     50     -12.8965      1.00000
     51     -12.6614      1.00000
     52     -12.5202      1.00000
     53     -12.4397      1.00000
     54     -12.3291      1.00000
     55     -12.3063      1.00000
     56     -12.2751      1.00000
     57     -12.2666      1.00000
     58     -12.1297      1.00000
     59     -12.0850      1.00000
     60     -12.0376      1.00000
     61     -11.9565      1.00000
     62     -11.8258      1.00000
     63     -11.8002      1.00000
     64     -11.7571      1.00000
     65     -11.6672      1.00000
     66     -11.6223      1.00000
     67     -11.3845      1.00000
     68     -11.3289      1.00000
     69     -11.2973      1.00000
     70     -11.2088      1.00000
     71     -11.1838      1.00000
     72     -11.0783      1.00000
     73      -1.3204      1.00000
     74      -1.1955      1.00000
     75      -1.1719      1.00000
     76      -1.1462      1.00000
     77      -0.9987      1.00000
     78      -0.8250      1.00000
     79      -0.6270      1.00000
     80      -0.5204      1.00000
     81      -0.4678      1.00000
     82      -0.4433      1.00000
     83      -0.3302      1.00000
     84      -0.2509      1.00000
     85      -0.2198      1.00000
     86      -0.1683      1.00000
     87      -0.1213      1.00000
     88      -0.0911      1.00000
     89      -0.0567      1.00000
     90       0.0399      1.00000
     91       0.0858      1.00000
     92       0.1383      1.00000
     93       0.1854      1.00000
[...]
 16        0.320   6.394   4.983  11.697
 17        1.559   3.511   0.000   5.070
 18        1.559   3.513   0.000   5.072
 19        1.559   3.511   0.000   5.070
 20        1.559   3.513   0.000   5.072
 21        1.559   3.511   0.000   5.070
 22        1.559   3.513   0.000   5.072
 23        1.559   3.511   0.000   5.070
 24        1.559   3.513   0.000   5.072
 25        1.558   3.479   0.000   5.038
 26        1.560   3.471   0.000   5.031
 27        1.558   3.481   0.000   5.040
 28        1.561   3.473   0.000   5.033
 29        1.560   3.473   0.000   5.033
 30        1.558   3.481   0.000   5.039
 31        1.560   3.471   0.000   5.031
 32        1.558   3.480   0.000   5.038
 33        1.558   3.479   0.000   5.038
 34        1.560   3.471   0.000   5.031
 35        1.558   3.481   0.000   5.040
 36        1.561   3.473   0.000   5.033
 37        1.560   3.473   0.000   5.033
 38        1.558   3.481   0.000   5.039
 39        1.560   3.471   0.000   5.031
 40        1.558   3.480   0.000   5.038
------------------------------------------------
tot       43.699 195.130  54.349 293.178
 


 magnetization (x)
 
# of ion     s       p       d       tot
----------------------------------------
  1        0.000  -0.000  -0.000  -0.000
  2        0.000  -0.000   0.001   0.000
  3        0.000  -0.000  -0.000  -0.000
  4        0.000  -0.000   0.001   0.000
  5       -0.000   0.000   0.000   0.000
  6       -0.000   0.000  -0.001  -0.000
  7       -0.000   0.000   0.000   0.000
  8       -0.000   0.000  -0.001  -0.000
  9        0.022   0.026   3.417   3.465
 10       -0.022  -0.026  -3.420  -3.468
 11       -0.022  -0.026  -3.417  -3.465
 12        0.022   0.026   3.420   3.468
 13       -0.022  -0.026  -3.417  -3.465
 14        0.022   0.026   3.420   3.468
 15        0.022   0.026   3.417   3.465
 16       -0.022  -0.026  -3.420  -3.468
 17        0.000   0.000   0.000   0.000
 18        0.000  -0.000   0.000  -0.000
 19        0.000   0.000   0.000   0.000
 20        0.000  -0.000   0.000   0.000
 21       -0.000  -0.000   0.000  -0.000
 22       -0.000   0.000   0.000   0.000
 23       -0.000  -0.000   0.000  -0.000
 24       -0.000   0.000   0.000  -0.000
 25        0.006   0.009   0.000   0.015
 26        0.008   0.031   0.000   0.039
 27       -0.006  -0.009   0.000  -0.016
 28       -0.009  -0.031   0.000  -0.040
 29       -0.009  -0.031   0.000  -0.040
 30       -0.006  -0.009   0.000  -0.015
 31        0.009   0.031   0.000   0.039
 32        0.006   0.009   0.000   0.015
 33       -0.006  -0.009   0.000  -0.015
 34       -0.008  -0.031   0.000  -0.039
 35        0.006   0.009   0.000   0.016
 36        0.009   0.031   0.000   0.040
 37        0.009   0.031   0.000   0.040
 38        0.006   0.009   0.000   0.015
 39       -0.009  -0.031   0.000  -0.039
 40       -0.006  -0.009   0.000  -0.015
------------------------------------------------
tot        0.000  -0.000   0.000  -0.000
 
    CHARGE:  cpu time    0.69: real time    0.69
    FORLOC:  cpu time    0.01: real time    0.01
    FORNL :  cpu time    3.48: real time    3.48
    STRESS:  cpu time    7.57: real time    7.56
    FORCOR:  cpu time    0.11: real time    0.11
    FORHAR:  cpu time    0.05: real time    0.05
    MIXING:  cpu time    0.00: real time    0.00

  FORCE on cell =-STRESS in cart. coord.  units (eV):
  Direction    XX          YY          ZZ          XY          YZ          ZX
  --------------------------------------------------------------------------------------
  Alpha Z  2143.72893  2143.72893  2143.72893
  Ewald   -8052.89682 -8622.58961 -7376.85892     0.00003    -0.00002     0.00000
  Hartree  2569.54945  2351.02571  3044.55553    -0.00002    -0.00000    -0.00000
  E(xc)   -1621.06796 -1621.74919 -1620.51029    -0.00000    -0.00000     0.00000
  Local      30.93779   772.52943 -1113.33452     0.00001     0.00001     0.00000
  n-local  -891.34891  -900.53107  -897.31764     0.00086     0.00189     0.21677
  augment  1143.95726  1166.12202  1142.43843    -0.00001     0.00000    -0.00000
  Kinetic  4698.52811  4732.87864  4698.72254    -0.07604     0.01009    -0.47153
  Fock        0.00000     0.00000     0.00000     0.00000     0.00000     0.00000
  -------------------------------------------------------------------------------------
  Total      21.38784    21.41485    21.42405     0.00000     0.00000     0.00000
  in kB      78.69433    78.79371    78.82753     0.00000     0.00000     0.00000
  external pressure =      -21.23 kB  Pullay stress =      100.00 kB


 VOLUME and BASIS-vectors are now :
 -----------------------------------------------------------------------------
  energy-cutoff  :      500.00
  volume of cell :      435.45
      direct lattice vectors                 reciprocal lattice vectors
     5.190540164  0.000000000  0.000000000     0.192658176  0.000000000  0.000000000
     0.000000000 11.455345427  0.000000000     0.000000000  0.087295491  0.000000000
     0.000000000  0.000000000  7.323411137     0.000000000  0.000000000  0.136548390

  length of vectors
     5.190540164 11.455345427  7.323411137     0.192658176  0.087295491  0.136548390


 FORCES acting on ions
    electron-ion (+dipol)            ewald-force                    non-local-force                 convergence-correction
 -----------------------------------------------------------------------------------------------
   -.189E+02 0.699E+02 0.346E-06   0.192E+02 -.699E+02 -.317E-05   -.365E+00 -.462E-01 0.434E-18   -.454E-05 -.165E-04 0.480E-13
   0.203E+02 -.578E+02 0.100E-05   -.206E+02 0.578E+02 -.995E-05   0.240E+00 -.368E-01 0.000E+00   0.143E-06 -.151E-04 0.187E-12
   -.189E+02 -.699E+02 0.111E-05   0.192E+02 0.699E+02 -.101E-04   -.365E+00 0.462E-01 0.000E+00   -.454E-05 0.165E-04 0.904E-13
   0.203E+02 0.578E+02 0.313E-06   -.206E+02 -.578E+02 -.348E-05   0.240E+00 0.368E-01 0.867E-18   0.143E-06 0.151E-04 0.614E-13
   -.189E+02 0.699E+02 0.346E-06   0.192E+02 -.699E+02 -.317E-05   -.365E+00 -.462E-01 0.434E-18   -.454E-05 -.165E-04 0.138E-12
   0.203E+02 -.578E+02 0.100E-05   -.206E+02 0.578E+02 -.995E-05   0.240E+00 -.368E-01 0.867E-18   0.143E-06 -.151E-04 0.144E-12
   -.189E+02 -.699E+02 0.111E-05   0.192E+02 0.699E+02 -.101E-04   -.365E+00 0.462E-01 0.000E+00   -.454E-05 0.165E-04 0.112E-13
   0.203E+02 0.578E+02 0.313E-06   -.206E+02 -.578E+02 -.348E-05   0.240E+00 0.368E-01 0.867E-18   0.143E-06 0.151E-04 0.964E-13
   -.903E+00 0.734E+01 0.215E+01   0.766E+00 -.738E+01 -.229E+01   0.137E+00 0.479E-01 0.135E+00   0.165E-04 -.333E-04 -.162E-05
   -.903E+00 -.734E+01 -.215E+01   0.766E+00 0.738E+01 0.229E+01   0.137E+00 -.479E-01 -.135E+00   0.165E-04 0.333E-04 0.162E-05
   -.903E+00 0.734E+01 -.215E+01   0.766E+00 -.738E+01 0.229E+01   0.137E+00 0.479E-01 -.135E+00   0.165E-04 -.333E-04 0.162E-05
   -.903E+00 -.734E+01 0.215E+01   0.766E+00 0.738E+01 -.229E+01   0.137E+00 -.479E-01 0.135E+00   0.165E-04 0.333E-04 -.162E-05
   -.903E+00 0.734E+01 0.215E+01   0.766E+00 -.738E+01 -.229E+01   0.137E+00 0.479E-01 0.135E+00   0.165E-04 -.333E-04 -.162E-05
   -.903E+00 -.734E+01 -.215E+01   0.766E+00 0.738E+01 0.229E+01   0.137E+00 -.479E-01 -.135E+00   0.165E-04 0.333E-04 0.162E-05
   -.903E+00 0.734E+01 -.215E+01   0.766E+00 -.738E+01 0.229E+01   0.137E+00 0.479E-01 -.135E+00   0.165E-04 -.333E-04 0.162E-05
   -.903E+00 -.734E+01 0.215E+01   0.766E+00 0.738E+01 -.229E+01   0.137E+00 -.479E-01 0.135E+00   0.165E-04 0.333E-04 -.162E-05
   -.881E+02 -.842E+01 -.778E-06   0.912E+02 0.102E+02 0.152E-06   -.313E+01 -.177E+01 0.434E-18   0.744E-05 0.868E-05 -.204E-13
   0.889E+02 0.407E-01 0.731E-06   -.919E+02 -.184E+01 -.723E-05   0.302E+01 0.180E+01 0.000E+00   -.188E-05 0.131E-04 0.507E-13
   -.881E+02 0.843E+01 0.230E-05   0.912E+02 -.102E+02 -.727E-05   -.313E+01 0.177E+01 0.434E-18   0.744E-05 -.868E-05 0.597E-13
   0.889E+02 -.400E-01 0.158E-05   -.919E+02 0.184E+01 0.825E-07   0.302E+01 -.180E+01 -.651E-18   -.188E-05 -.131E-04 0.217E-12
   -.881E+02 -.843E+01 -.778E-06   0.912E+02 0.102E+02 0.152E-06   -.313E+01 -.177E+01 0.434E-18   0.744E-05 0.868E-05 0.969E-13
   0.889E+02 0.407E-01 0.731E-06   -.919E+02 -.184E+01 -.723E-05   0.302E+01 0.180E+01 0.000E+00   -.188E-05 0.131E-04 0.150E-12
   -.881E+02 0.843E+01 0.230E-05   0.912E+02 -.102E+02 -.727E-05   -.313E+01 0.177E+01 0.434E-18   0.744E-05 -.868E-05 -.447E-13
   0.889E+02 -.399E-01 0.158E-05   -.919E+02 0.184E+01 0.825E-07   0.302E+01 -.180E+01 -.651E-18   -.188E-05 -.131E-04 0.101E-12
   0.891E+02 0.372E+01 -.350E+02   -.952E+02 -.729E+01 0.355E+02   0.605E+01 0.357E+01 -.451E+00   -.580E-05 0.308E-05 0.484E-05
   -.898E+02 -.150E+02 0.317E+02   0.954E+02 0.200E+02 -.309E+02   -.557E+01 -.508E+01 -.819E+00   0.785E-05 0.497E-05 -.489E-05
   0.891E+02 -.372E+01 0.350E+02   -.952E+02 0.729E+01 -.355E+02   0.605E+01 -.357E+01 0.451E+00   -.580E-05 -.308E-05 -.484E-05
   -.898E+02 0.150E+02 -.317E+02   0.954E+02 -.200E+02 0.309E+02   -.557E+01 0.508E+01 0.819E+00   0.785E-05 -.497E-05 0.489E-05
   -.898E+02 -.150E+02 -.317E+02   0.954E+02 0.200E+02 0.309E+02   -.557E+01 -.508E+01 0.819E+00   0.785E-05 0.497E-05 0.489E-05
   0.891E+02 0.372E+01 0.350E+02   -.952E+02 -.729E+01 -.355E+02   0.605E+01 0.357E+01 0.451E+00   -.580E-05 0.308E-05 -.484E-05
   -.898E+02 0.150E+02 0.317E+02   0.954E+02 -.200E+02 -.309E+02   -.557E+01 0.508E+01 -.819E+00   0.785E-05 -.497E-05 -.489E-05
   0.891E+02 -.372E+01 -.350E+02   -.952E+02 0.729E+01 0.355E+02   0.605E+01 -.357E+01 -.451E+00   -.580E-05 -.308E-05 0.484E-05
   0.891E+02 0.372E+01 -.350E+02   -.952E+02 -.729E+01 0.355E+02   0.605E+01 0.357E+01 -.451E+00   -.580E-05 0.308E-05 0.484E-05
   -.898E+02 -.150E+02 0.317E+02   0.954E+02 0.200E+02 -.309E+02   -.557E+01 -.508E+01 -.819E+00   0.785E-05 0.497E-05 -.489E-05
   0.891E+02 -.372E+01 0.350E+02   -.952E+02 0.729E+01 -.355E+02   0.605E+01 -.357E+01 0.451E+00   -.580E-05 -.308E-05 -.484E-05
   -.898E+02 0.150E+02 -.317E+02   0.954E+02 -.200E+02 0.309E+02   -.557E+01 0.508E+01 0.819E+00   0.785E-05 -.497E-05 0.489E-05
   -.898E+02 -.150E+02 -.317E+02   0.954E+02 0.200E+02 0.309E+02   -.557E+01 -.508E+01 0.819E+00   0.785E-05 0.497E-05 0.489E-05
   0.891E+02 0.372E+01 0.350E+02   -.952E+02 -.729E+01 -.355E+02   0.605E+01 0.357E+01 0.451E+00   -.580E-05 0.308E-05 -.484E-05
   -.898E+02 0.150E+02 0.317E+02   0.954E+02 -.200E+02 -.309E+02   -.557E+01 0.508E+01 -.819E+00   0.785E-05 -.497E-05 -.489E-05
   0.891E+02 -.372E+01 -.350E+02   -.952E+02 0.729E+01 0.355E+02   0.605E+01 -.357E+01 -.451E+00   -.580E-05 -.308E-05 0.484E-05
 -----------------------------------------------------------------------------------------------
   -.390E+01 0.928E-02 0.604E-03   0.128E-12 0.167E-12 -.107E-12   0.390E+01 0.222E-14 -.389E-15   0.153E-03 0.179E-09 0.177E-10
 
 
 POSITION                                       TOTAL-FORCE (eV/Angst)
 -----------------------------------------------------------------------------------
      5.08906      0.44858      1.83085         0.000014     -0.000124     -0.000000
      0.10795     10.97836      5.49256         0.000029     -0.000089      0.000000
      2.49379      2.41525      5.49256         0.000014      0.000124     -0.000000
      2.70322      3.34082      1.83085         0.000029      0.000089      0.000000
      5.08906      6.17625      1.83085         0.000014     -0.000124     -0.000000
      0.10795      5.25069      5.49256         0.000029     -0.000089      0.000000
      2.49379      8.14293      5.49256         0.000014      0.000124     -0.000000
      2.70322      9.06849      1.83085         0.000029      0.000089     -0.000000
      2.60308      0.02389      0.00109        -0.000108     -0.000203     -0.000049
      0.00781      2.83995      7.32233        -0.000108      0.000203      0.000049
      2.60308      0.02389      3.66062        -0.000108     -0.000203      0.000049
      0.00781      2.83995      3.66279        -0.000108      0.000203     -0.000049
      2.60308      5.75156      0.00109        -0.000108     -0.000203     -0.000049
      0.00781      8.56762      7.32233        -0.000108      0.000203      0.000049
      2.60308      5.75156      3.66062        -0.000108     -0.000203      0.000049
      0.00781      8.56762      3.66279        -0.000108      0.000203     -0.000049
      0.52399      2.70527      1.83085         0.000254     -0.000082     -0.000000
      4.68672      8.72067      5.49256        -0.000015     -0.000234     -0.000000
      3.11926      0.15857      5.49256         0.000254      0.000082      0.000000
      2.09145      5.59851      1.83085        -0.000015      0.000234     -0.000000
      0.52399      8.43294      1.83085         0.000254     -0.000082     -0.000000
      4.68672      2.99300      5.49256        -0.000015     -0.000234     -0.000000
      3.11926      5.88624      5.49256         0.000254      0.000082      0.000000
      2.09145     11.32618      1.83085        -0.000015      0.000234     -0.000000
      3.63349      1.83363      0.36808         0.000024      0.000022      0.000017
      1.53591      9.64262      6.97577        -0.000058     -0.000094     -0.000110
      1.03822      1.03020      6.95533         0.000024     -0.000022     -0.000017
      4.13118      4.67656      0.34764        -0.000058      0.000094      0.000110
      1.53591      9.64262      4.00934        -0.000058     -0.000094      0.000110
      3.63349      1.83363      3.29363         0.000024      0.000022     -0.000017
      4.13118      4.67656      3.31407        -0.000058      0.000094     -0.000110
      1.03822      1.03020      4.02978         0.000024     -0.000022      0.000017
      3.63349      7.56131      0.36808         0.000024      0.000022      0.000017
      1.53591      3.91495      6.97577        -0.000058     -0.000094     -0.000110
      1.03822      6.75787      6.95533         0.000024     -0.000022     -0.000017
      4.13118     10.40423      0.34764        -0.000058      0.000094      0.000110
      1.53591      3.91495      4.00934        -0.000058     -0.000094      0.000110
      3.63349      7.56131      3.29363         0.000024      0.000022     -0.000017
      4.13118     10.40423      3.31407        -0.000058      0.000094     -0.000110
      1.03822      6.75787      4.02978         0.000024     -0.000022      0.000017
 -----------------------------------------------------------------------------------
    total drift:                                0.004483      0.009284      0.000604


--------------------------------------------------------------------------------------------------------



  FREE ENERGIE OF THE ION-ELECTRON SYSTEM (eV)
  ---------------------------------------------------
  free  energy   TOTEN  =      -345.50790931 eV

  energy  without entropy=     -345.50790931  energy(sigma->0) =     -345.50790931
  enthalpy is  TOTEN    =      -318.32952851 eV   P V=       27.17838080



--------------------------------------------------------------------------------------------------------


    POTLOK:  cpu time    0.16: real time    0.16


--------------------------------------------------------------------------------------------------------


 writing wavefunctions
     LOOP+:  cpu time  279.08: real time  302.18
    4ORBIT:  cpu time    0.00: real time    0.01
 


 total charge     
 
# of ion     s       p       d       tot
----------------------------------------
  1        0.461   7.510   1.789   9.760
  2        0.471   7.556   1.829   9.855
  3        0.461   7.510   1.789   9.760
  4        0.471   7.556   1.829   9.856
  5        0.461   7.510   1.789   9.760
  6        0.471   7.556   1.829   9.855
  7        0.461   7.510   1.789   9.760
  8        0.471   7.556   1.829   9.856
  9        0.320   6.394   4.984  11.697
 10        0.319   6.394   4.986  11.699
 11        0.319   6.394   4.986  11.699
 12        0.320   6.394   4.983  11.697
 13        0.320   6.394   4.984  11.697
 14        0.319   6.394   4.986  11.699
 15        0.319   6.394   4.986  11.699
 16        0.320   6.394   4.983  11.697
 17        1.559   3.511   0.000   5.070
 18        1.559   3.513   0.000   5.072
 19        1.559   3.511   0.000   5.070
 20        1.559   3.513   0.000   5.072
 21        1.559   3.511   0.000   5.070
 22        1.559   3.513   0.000   5.072
 23        1.559   3.511   0.000   5.070
 24        1.559   3.513   0.000   5.072
 25        1.558   3.479   0.000   5.038
 26        1.560   3.471   0.000   5.031
 27        1.558   3.481   0.000   5.040
 28        1.561   3.473   0.000   5.033
 29        1.560   3.473   0.000   5.033
 30        1.558   3.481   0.000   5.039
 31        1.560   3.471   0.000   5.031
 32        1.558   3.480   0.000   5.038
 33        1.558   3.479   0.000   5.038
 34        1.560   3.471   0.000   5.031
 35        1.558   3.481   0.000   5.040
 36        1.561   3.473   0.000   5.033
 37        1.560   3.473   0.000   5.033
 38        1.558   3.481   0.000   5.039
 39        1.560   3.471   0.000   5.031
 40        1.558   3.480   0.000   5.038
------------------------------------------------
tot       43.699 195.130  54.349 293.178
 


 magnetization (x)
 
# of ion     s       p       d       tot
----------------------------------------
  1        0.000  -0.000  -0.000  -0.000
  2        0.000  -0.000   0.001   0.000
  3        0.000  -0.000  -0.000  -0.000
  4        0.000  -0.000   0.001   0.000
  5       -0.000   0.000   0.000   0.000
  6       -0.000   0.000  -0.001  -0.000
  7       -0.000   0.000   0.000   0.000
  8       -0.000   0.000  -0.001  -0.000
  9        0.022   0.026   3.417   3.465
 10       -0.022  -0.026  -3.420  -3.468
 11       -0.022  -0.026  -3.417  -3.465
 12        0.022   0.026   3.420   3.468
 13       -0.022  -0.026  -3.417  -3.465
 14        0.022   0.026   3.420   3.468
 15        0.022   0.026   3.417   3.465
 16       -0.022  -0.026  -3.420  -3.468
 17        0.000   0.000   0.000   0.000
 18        0.000  -0.000   0.000  -0.000
 19        0.000   0.000   0.000   0.000
 20        0.000  -0.000   0.000   0.000
 21       -0.000  -0.000   0.000  -0.000
 22       -0.000   0.000   0.000   0.000
 23       -0.000  -0.000   0.000  -0.000
 24       -0.000   0.000   0.000  -0.000
 25        0.006   0.009   0.000   0.015
 26        0.008   0.031   0.000   0.039
 27       -0.006  -0.009   0.000  -0.016
 28       -0.009  -0.031   0.000  -0.040
 29       -0.009  -0.031   0.000  -0.040
 30       -0.006  -0.009   0.000  -0.015
 31        0.009   0.031   0.000   0.039
 32        0.006   0.009   0.000   0.015
 33       -0.006  -0.009   0.000  -0.015
 34       -0.008  -0.031   0.000  -0.039
 35        0.006   0.009   0.000   0.016
 36        0.009   0.031   0.000   0.040
 37        0.009   0.031   0.000   0.040
 38        0.006   0.009   0.000   0.015
 39       -0.009  -0.031   0.000  -0.039
 40       -0.006  -0.009   0.000  -0.015
------------------------------------------------
tot        0.000  -0.000   0.000  -0.000
 

 total amount of memory used by VASP on root node   122653. kBytes
========================================================================

   base      :      30000. kBytes
   nonl-proj :      64856. kBytes
   fftplans  :       1389. kBytes
   grid      :      16243. kBytes
   one-center:       1244. kBytes
   wavefun   :       8921. kBytes
 
  
  
 General timing and accounting informations for this job:
 ========================================================
  
                  Total CPU time used (sec):      323.933
                            User time (sec):      320.339
                          System time (sec):        3.593
                         Elapsed time (sec):      359.062
  
                   Maximum memory used (kb):      252404.
                   Average memory used (kb):           0.
  
                          Minor page faults:        64276
                          Major page faults:           46
                 Voluntary context switches:        30304
